/*--------------------------------*- C++ -*----------------------------------*\
  =========                 |
  \\      /  F ield         | OpenFOAM: The Open Source CFD Toolbox
   \\    /   O peration     | Website:  https://openfoam.org
    \\  /    A nd           | Version:  6
     \\/     M anipulation  |
\*---------------------------------------------------------------------------*/
FoamFile
{
    version     2.0;
    format      ascii;
    class       surfaceScalarField;
    location    "0.5";
    object      phi_0;
}
// * * * * * * * * * * * * * * * * * * * * * * * * * * * * * * * * * * * * * //

dimensions      [0 3 -1 0 0 0 0];

internalField   nonuniform List<scalar> 
24170
(
3.1377e-06
8.81011e-08
3.04138e-06
9.63232e-08
2.9266e-06
1.14782e-07
2.80531e-06
1.21289e-07
2.70075e-06
1.0456e-07
2.61972e-06
8.10303e-08
2.5566e-06
6.31194e-08
2.49932e-06
5.72765e-08
2.43432e-06
6.50031e-08
2.35468e-06
7.96442e-08
2.2636e-06
9.10818e-08
2.17079e-06
9.28022e-08
2.08534e-06
8.54535e-08
2.01062e-06
7.47156e-08
1.94663e-06
6.39989e-08
1.88994e-06
5.66825e-08
1.83293e-06
5.70109e-08
5.89777e-08
1.77395e-06
3.46163e-06
1.70565e-07
3.43904e-06
1.18912e-07
3.43045e-06
1.23377e-07
3.41764e-06
1.341e-07
3.40928e-06
1.12918e-07
3.40475e-06
8.55592e-08
3.39944e-06
6.84347e-08
3.39313e-06
6.3581e-08
3.38835e-06
6.97813e-08
3.38571e-06
8.229e-08
3.38329e-06
9.35032e-08
3.37914e-06
9.69457e-08
3.37319e-06
9.14068e-08
3.36593e-06
8.19788e-08
3.35752e-06
7.24074e-08
3.34722e-06
6.698e-08
3.33227e-06
7.19626e-08
7.86685e-08
3.31258e-06
3.65958e-06
1.5067e-07
3.69065e-06
8.78463e-08
3.72172e-06
9.23048e-08
3.72664e-06
1.29182e-07
3.71457e-06
1.2498e-07
3.69846e-06
1.01672e-07
3.68692e-06
7.99714e-08
3.68504e-06
6.54648e-08
3.69471e-06
6.01158e-08
3.71357e-06
6.34313e-08
3.7351e-06
7.19644e-08
3.75183e-06
8.02244e-08
3.75916e-06
8.40677e-08
3.75805e-06
8.30903e-08
3.75226e-06
7.82034e-08
3.74584e-06
7.33948e-08
3.74533e-06
7.24728e-08
7.30123e-08
3.75099e-06
3.9413e-06
1.88068e-07
3.94569e-06
8.34644e-08
3.96474e-06
7.32484e-08
3.98133e-06
1.12591e-07
3.99141e-06
1.149e-07
4.00035e-06
9.27362e-08
4.01075e-06
6.95669e-08
4.01699e-06
5.92327e-08
4.01321e-06
6.3893e-08
3.99974e-06
7.69032e-08
3.98149e-06
9.02117e-08
3.96379e-06
9.792e-08
3.95033e-06
9.75321e-08
3.94342e-06
8.99965e-08
3.94366e-06
7.79702e-08
3.95087e-06
6.61763e-08
3.9663e-06
5.70498e-08
5.16479e-08
3.98766e-06
4.21399e-06
1.05357e-07
4.23525e-06
6.21988e-08
4.23698e-06
7.15257e-08
4.22525e-06
1.24316e-07
4.21942e-06
1.20735e-07
4.23537e-06
7.67794e-08
4.26643e-06
3.85083e-08
4.29325e-06
3.24116e-08
4.30306e-06
5.40886e-08
4.29665e-06
8.33148e-08
4.2832e-06
1.03659e-07
4.27197e-06
1.09152e-07
4.26767e-06
1.01824e-07
4.2705e-06
8.71665e-08
4.27777e-06
7.07075e-08
4.28714e-06
5.68049e-08
4.29712e-06
4.70724e-08
4.15969e-08
4.30717e-06
4.59213e-06
4.19855e-08
4.62049e-06
3.38437e-08
4.59569e-06
9.63245e-08
4.56182e-06
1.58188e-07
4.52249e-06
1.6006e-07
4.48749e-06
1.11784e-07
4.47015e-06
5.58472e-08
4.47465e-06
2.79153e-08
4.49492e-06
3.38135e-08
4.52115e-06
5.70865e-08
4.54576e-06
7.9043e-08
4.56554e-06
8.93766e-08
4.58063e-06
8.67321e-08
4.59267e-06
7.51331e-08
4.60312e-06
6.0256e-08
4.61302e-06
4.6905e-08
4.62225e-06
3.78346e-08
3.27267e-08
4.63112e-06
4.78293e-06
-9.88826e-08
4.79736e-06
1.9414e-08
4.788e-06
1.05689e-07
4.80262e-06
1.43569e-07
4.83765e-06
1.25027e-07
4.8704e-06
7.90401e-08
4.88104e-06
4.52039e-08
4.86929e-06
3.96686e-08
4.8514e-06
5.16997e-08
4.84455e-06
6.39362e-08
4.85585e-06
6.77456e-08
4.88175e-06
6.34711e-08
4.91321e-06
5.52722e-08
4.94065e-06
4.7696e-08
4.95764e-06
4.32641e-08
4.96235e-06
4.22015e-08
4.95725e-06
4.29279e-08
4.28654e-08
4.94711e-06
5.24765e-06
-1.40683e-07
5.1887e-06
7.83615e-08
5.16601e-06
1.28385e-07
5.18224e-06
1.27338e-07
5.20151e-06
1.05757e-07
5.20229e-06
7.82583e-08
5.18973e-06
5.77626e-08
5.18018e-06
4.92186e-08
5.18391e-06
4.79716e-08
5.20037e-06
4.74728e-08
5.22246e-06
4.56552e-08
5.24225e-06
4.36798e-08
5.25484e-06
4.26902e-08
5.25922e-06
4.33154e-08
5.25745e-06
4.50297e-08
5.25274e-06
4.69137e-08
5.24808e-06
4.75859e-08
4.49267e-08
5.24602e-06
5.42927e-06
1.05274e-07
5.44656e-06
6.10682e-08
5.48092e-06
9.40196e-08
5.49933e-06
1.08931e-07
5.50958e-06
9.55074e-08
5.52209e-06
6.57514e-08
5.54313e-06
3.67221e-08
5.57011e-06
2.22409e-08
5.59506e-06
2.30187e-08
5.61161e-06
3.09247e-08
5.61858e-06
3.86834e-08
5.61852e-06
4.37416e-08
5.61512e-06
4.60905e-08
5.61105e-06
4.73823e-08
5.60775e-06
4.83313e-08
5.60581e-06
4.88565e-08
5.60547e-06
4.79249e-08
4.48085e-08
5.60558e-06
6.03852e-06
2.80575e-09
6.00644e-06
9.31477e-08
5.96784e-06
1.32618e-07
5.95539e-06
1.21387e-07
5.96054e-06
9.03531e-08
5.97597e-06
5.03227e-08
5.99061e-06
2.2088e-08
5.99228e-06
2.05704e-08
5.97679e-06
3.85053e-08
5.95058e-06
5.71366e-08
5.92531e-06
6.39469e-08
5.91015e-06
5.89038e-08
5.90766e-06
4.85814e-08
5.91542e-06
3.96184e-08
5.9284e-06
3.53544e-08
5.94239e-06
3.48721e-08
5.95396e-06
3.63536e-08
3.63101e-08
5.96246e-06
6.47351e-06
2.24119e-08
6.38752e-06
1.79135e-07
6.36467e-06
1.55469e-07
6.39115e-06
9.49019e-08
6.43098e-06
5.05262e-08
6.45832e-06
2.29843e-08
6.46095e-06
1.94548e-08
6.44297e-06
3.85513e-08
6.41769e-06
6.3785e-08
6.39722e-06
7.76092e-08
6.3872e-06
7.39623e-08
6.38822e-06
5.78815e-08
6.39752e-06
3.92892e-08
6.41179e-06
2.53451e-08
6.42801e-06
1.91376e-08
6.44375e-06
1.91264e-08
6.45742e-06
2.26862e-08
2.64133e-08
6.46732e-06
5.66752e-06
1.20344e-07
5.69397e-06
1.52687e-07
5.76046e-06
8.89841e-08
5.81209e-06
4.32661e-08
5.83281e-06
2.98042e-08
5.82611e-06
2.96885e-08
5.80325e-06
4.23166e-08
5.77772e-06
6.40817e-08
5.76052e-06
8.09804e-08
5.75681e-06
8.13203e-08
5.76553e-06
6.52411e-08
5.78176e-06
4.16578e-08
5.79972e-06
2.13216e-08
5.8146e-06
1.04694e-08
5.82431e-06
9.42793e-09
5.82877e-06
1.46666e-08
5.8295e-06
2.19509e-08
2.67046e-08
5.82921e-06
7.08876e-06
1.29059e-07
7.10703e-06
1.3441e-07
7.09119e-06
1.04827e-07
7.08245e-06
5.20018e-08
7.09703e-06
1.52267e-08
7.11386e-06
1.28626e-08
7.1207e-06
3.54762e-08
7.12224e-06
6.25345e-08
7.12658e-06
7.66409e-08
7.13469e-06
7.32131e-08
7.14116e-06
5.8774e-08
7.14031e-06
4.25101e-08
7.13089e-06
3.07386e-08
7.1161e-06
2.52542e-08
7.10085e-06
2.46816e-08
7.08886e-06
2.66619e-08
7.08212e-06
2.86863e-08
3.01883e-08
7.07864e-06
8.54209e-06
1.50153e-07
8.51949e-06
1.57018e-07
8.46662e-06
1.57692e-07
8.42907e-06
8.95513e-08
8.43907e-06
5.2285e-09
8.49494e-06
-4.30092e-08
8.57855e-06
-4.81324e-08
8.665e-06
-2.39114e-08
8.73072e-06
1.09211e-08
8.76093e-06
4.29961e-08
8.75349e-06
6.62156e-08
8.71821e-06
7.77923e-08
8.67099e-06
7.79544e-08
8.62757e-06
6.86821e-08
8.59807e-06
5.41796e-08
8.5861e-06
3.86325e-08
8.59002e-06
2.47685e-08
1.66054e-08
8.6036e-06
1.0599e-05
1.44465e-08
1.07297e-05
2.63435e-08
1.07227e-05
1.6474e-07
1.06361e-05
1.76085e-07
1.05255e-05
1.1587e-07
1.04153e-05
6.71576e-08
1.03267e-05
4.05265e-08
1.02805e-05
2.2269e-08
1.02829e-05
8.52148e-09
1.03231e-05
2.81707e-09
1.03822e-05
7.05937e-09
1.04429e-05
1.71439e-08
1.04938e-05
2.6987e-08
1.05309e-05
3.16398e-08
1.05558e-05
2.92612e-08
1.05721e-05
2.23369e-08
1.0584e-05
1.28433e-08
4.61823e-09
1.0596e-05
1.26396e-05
2.42536e-07
1.25553e-05
1.10619e-07
1.25781e-05
1.41965e-07
1.26451e-05
1.09037e-07
1.27058e-05
5.514e-08
1.27275e-05
4.54794e-08
1.27057e-05
6.23733e-08
1.26598e-05
6.8113e-08
1.26176e-05
5.07015e-08
1.25976e-05
2.28499e-08
1.2602e-05
2.64164e-09
1.26209e-05
-1.67269e-09
1.26418e-05
6.07235e-09
1.26567e-05
1.67374e-08
1.26652e-05
2.07229e-08
1.26713e-05
1.62921e-08
1.26805e-05
3.59469e-09
-7.33368e-09
1.26925e-05
1.54886e-05
2.95629e-07
1.5466e-05
1.33189e-07
1.55296e-05
7.83525e-08
1.55472e-05
9.13896e-08
1.54838e-05
1.18569e-07
1.53904e-05
1.38934e-07
1.53216e-05
1.31187e-07
1.52984e-05
9.12171e-08
1.53103e-05
3.88238e-08
1.53338e-05
-5.92281e-10
1.53515e-05
-1.50956e-08
1.53585e-05
-8.665e-09
1.53586e-05
6.01615e-09
1.53568e-05
1.84865e-08
1.53551e-05
2.23833e-08
1.53528e-05
1.85922e-08
1.53466e-05
9.85442e-09
-2.83121e-09
1.53421e-05
1.85168e-05
1.90481e-07
1.86043e-05
4.57267e-08
1.86804e-05
2.28114e-09
1.87313e-05
4.05088e-08
1.87598e-05
9.00079e-08
1.87819e-05
1.16834e-07
1.88077e-05
1.05377e-07
1.88385e-05
6.04119e-08
1.88717e-05
5.6384e-09
1.89061e-05
-3.49556e-08
1.89408e-05
-4.97884e-08
1.89713e-05
-3.92156e-08
1.89894e-05
-1.20833e-08
1.89874e-05
2.05187e-08
1.89622e-05
4.7544e-08
1.89175e-05
6.32839e-08
1.88615e-05
6.58967e-08
5.83163e-08
1.88003e-05
2.27313e-05
-1.11261e-07
2.26845e-05
9.2519e-08
2.26326e-05
5.41759e-08
2.2751e-05
-7.78219e-08
2.2979e-05
-1.38015e-07
2.31919e-05
-9.60918e-08
2.32978e-05
-5.1833e-10
2.32774e-05
8.08209e-08
2.31763e-05
1.06789e-07
2.30615e-05
7.98526e-08
2.29815e-05
3.01977e-08
2.29531e-05
-1.08576e-08
2.29686e-05
-2.75409e-08
2.30105e-05
-2.14052e-08
2.30611e-05
-3.10442e-09
2.31089e-05
1.54983e-08
2.3147e-05
2.78711e-08
3.07561e-08
2.31745e-05
1.69349e-05
-7.76849e-08
1.70209e-05
6.54203e-09
1.70414e-05
3.36618e-08
1.70103e-05
-4.67096e-08
1.69923e-05
-1.20083e-07
1.70142e-05
-1.17979e-07
1.70674e-05
-5.3681e-08
1.71262e-05
2.20319e-08
1.71654e-05
6.75808e-08
1.71719e-05
7.33289e-08
1.715e-05
5.21416e-08
1.71174e-05
2.17596e-08
1.70943e-05
-4.51438e-09
1.70929e-05
-2.00283e-08
1.71129e-05
-2.30898e-08
1.71449e-05
-1.64934e-08
1.71764e-05
-3.57072e-09
1.09992e-08
1.71961e-05
1.44621e-05
-2.57081e-07
1.46633e-05
-1.94634e-07
1.47474e-05
-5.04934e-08
1.47384e-05
-3.77021e-08
1.47006e-05
-8.22815e-08
1.46932e-05
-1.10595e-07
1.47364e-05
-9.68561e-08
1.48098e-05
-5.13199e-08
1.4877e-05
3.74014e-10
1.49121e-05
3.82542e-08
1.49094e-05
5.47518e-08
1.48795e-05
5.16777e-08
1.48389e-05
3.61236e-08
1.48015e-05
1.73765e-08
1.47753e-05
3.12638e-09
1.47621e-05
-3.29265e-09
1.47606e-05
-2.05948e-09
4.23967e-09
1.47673e-05
1.29476e-05
7.28155e-08
1.27853e-05
-3.24188e-08
1.27267e-05
8.13092e-09
1.26716e-05
1.74183e-08
1.25936e-05
-4.27077e-09
1.25129e-05
-2.99209e-08
1.24595e-05
-4.33935e-08
1.245e-05
-4.19053e-08
1.24836e-05
-3.31996e-08
1.25491e-05
-2.72701e-08
1.26331e-05
-2.91892e-08
1.27219e-05
-3.71098e-08
1.2803e-05
-4.50063e-08
1.28674e-05
-4.70487e-08
1.29113e-05
-4.07874e-08
1.29364e-05
-2.83175e-08
1.29474e-05
-1.30835e-08
-6.57196e-10
1.29523e-05
1.11515e-05
-1.16603e-07
1.11489e-05
-2.98468e-08
1.11639e-05
-6.86475e-09
1.12045e-05
-2.31403e-08
1.12334e-05
-3.32025e-08
1.12326e-05
-2.91638e-08
1.12109e-05
-2.1687e-08
1.11895e-05
-2.04558e-08
1.11858e-05
-2.94661e-08
1.12042e-05
-4.56957e-08
1.12368e-05
-6.17877e-08
1.12707e-05
-7.10526e-08
1.12965e-05
-7.07503e-08
1.13118e-05
-6.23372e-08
1.132e-05
-4.90596e-08
1.13262e-05
-3.45354e-08
1.13346e-05
-2.14525e-08
-1.09087e-08
1.13449e-05
9.63454e-06
-4.98043e-08
9.72113e-06
-1.16436e-07
9.79277e-06
-7.85066e-08
9.79419e-06
-2.45594e-08
9.75018e-06
1.08104e-08
9.69943e-06
2.15838e-08
9.66836e-06
9.385e-09
9.66018e-06
-1.22734e-08
9.66035e-06
-2.96405e-08
9.65372e-06
-3.90681e-08
9.63584e-06
-4.39011e-08
9.61268e-06
-4.79e-08
9.59422e-06
-5.22841e-08
9.58821e-06
-5.63328e-08
9.59771e-06
-5.85619e-08
9.62119e-06
-5.80135e-08
9.65489e-06
-5.51448e-08
-5.04491e-08
9.69443e-06
8.53242e-06
5.62229e-08
8.50185e-06
-8.58693e-08
8.47531e-06
-5.19627e-08
8.42037e-06
3.03776e-08
8.36876e-06
6.24216e-08
8.34569e-06
4.46577e-08
8.35619e-06
-1.11277e-09
8.3929e-06
-4.89847e-08
8.44301e-06
-7.9753e-08
8.49426e-06
-9.03153e-08
8.53771e-06
-8.73523e-08
8.5678e-06
-7.79938e-08
8.58238e-06
-6.68569e-08
8.58241e-06
-5.63673e-08
8.57178e-06
-4.79311e-08
8.55562e-06
-4.18584e-08
8.53872e-06
-3.82419e-08
-3.68309e-08
8.5251e-06
7.3138e-06
4.02051e-08
7.29813e-06
-7.01971e-08
7.29727e-06
-5.11079e-08
7.30809e-06
1.9563e-08
7.31583e-06
5.46815e-08
7.31711e-06
4.33749e-08
7.3211e-06
-5.09739e-09
7.3364e-06
-6.42849e-08
7.36272e-06
-1.06078e-07
7.39229e-06
-1.19884e-07
7.41535e-06
-1.10408e-07
7.42522e-06
-8.78641e-08
7.42087e-06
-6.25145e-08
7.40609e-06
-4.15857e-08
7.38666e-06
-2.85041e-08
7.36777e-06
-2.29632e-08
7.35265e-06
-2.31181e-08
-2.64724e-08
7.34229e-06
6.3654e-06
1.19697e-07
6.33854e-06
-4.33335e-08
6.38316e-06
-9.57329e-08
6.45697e-06
-5.42408e-08
6.52695e-06
-1.53056e-08
6.56715e-06
3.17653e-09
6.56335e-06
-1.29362e-09
6.52234e-06
-2.32781e-08
6.46534e-06
-4.9075e-08
6.41394e-06
-6.84844e-08
6.38141e-06
-7.78753e-08
6.37146e-06
-7.79138e-08
6.38101e-06
-7.20716e-08
6.40378e-06
-6.43543e-08
6.43262e-06
-5.73404e-08
6.46159e-06
-5.19389e-08
6.4861e-06
-4.76223e-08
-4.45406e-08
6.50417e-06
5.61791e-06
-1.4177e-07
5.6213e-06
-4.6724e-08
5.6099e-06
-8.43284e-08
5.63592e-06
-8.02612e-08
5.66507e-06
-4.44575e-08
5.69056e-06
-2.23094e-08
5.71112e-06
-2.18582e-08
5.7207e-06
-3.28612e-08
5.71577e-06
-4.41377e-08
5.69952e-06
-5.22431e-08
5.67985e-06
-5.81988e-08
5.66477e-06
-6.28326e-08
5.65893e-06
-6.62325e-08
5.66307e-06
-6.84956e-08
5.67478e-06
-6.90482e-08
5.69044e-06
-6.76033e-08
5.70643e-06
-6.36124e-08
-5.76065e-08
5.7195e-06
4.86703e-06
-1.46599e-07
4.87318e-06
-5.2871e-08
4.83128e-06
-4.24374e-08
4.81284e-06
-6.18123e-08
4.83965e-06
-7.12752e-08
4.88786e-06
-7.0519e-08
4.9306e-06
-6.45997e-08
4.95635e-06
-5.86093e-08
4.96696e-06
-5.47474e-08
4.96747e-06
-5.27466e-08
4.96062e-06
-5.13579e-08
4.94788e-06
-5.00868e-08
4.93129e-06
-4.96388e-08
4.91369e-06
-5.08975e-08
4.89773e-06
-5.30862e-08
4.88482e-06
-5.46982e-08
4.87526e-06
-5.40541e-08
-5.0801e-08
4.86846e-06
4.11407e-06
4.0612e-06
4.01876e-06
3.95695e-06
3.88567e-06
3.81515e-06
3.75055e-06
3.69194e-06
3.6372e-06
3.58445e-06
3.53309e-06
3.483e-06
3.43337e-06
3.38247e-06
3.32938e-06
3.27468e-06
3.22063e-06
3.16983e-06
-1.40793e-07
1.40793e-07
-2.28689e-07
8.78957e-08
-1.632e-07
-6.54893e-08
2.61244e-08
-1.89324e-07
2.61716e-07
-2.35592e-07
4.70691e-07
-2.08975e-07
6.02958e-07
-1.32267e-07
6.30663e-07
-2.77043e-08
5.42202e-07
8.84606e-08
3.46417e-07
1.95785e-07
7.00698e-08
2.76347e-07
-2.45688e-07
3.15758e-07
-5.46532e-07
3.00844e-07
-7.84755e-07
2.38223e-07
-9.44283e-07
1.59528e-07
-1.03366e-06
8.93809e-08
-1.05868e-06
2.50194e-08
-1.04935e-06
-9.3346e-09
-1.06547e-06
1.61226e-08
-1.16568e-06
1.00213e-07
-1.45661e-06
2.90931e-07
-1.996e-06
5.39382e-07
-2.64351e-06
6.47511e-07
-3.18117e-06
5.37666e-07
-3.5678e-06
3.86631e-07
-3.88237e-06
3.1457e-07
-4.11591e-06
2.33532e-07
-4.26803e-06
1.52125e-07
-4.39531e-06
1.27276e-07
-4.50863e-06
1.13323e-07
-4.60379e-06
9.51553e-08
-4.70196e-06
9.81769e-08
-4.8101e-06
1.08133e-07
-4.92076e-06
1.10669e-07
-5.03257e-06
1.11801e-07
-5.14235e-06
1.09782e-07
-5.24254e-06
1.00196e-07
-5.32783e-06
8.52877e-08
-5.39421e-06
6.63763e-08
-5.43673e-06
4.25217e-08
-5.451e-06
1.42705e-08
-5.43461e-06
-1.63861e-08
-5.38668e-06
-4.79361e-08
-5.30684e-06
-7.98386e-08
-5.19401e-06
-1.12832e-07
-5.0445e-06
-1.49504e-07
-4.85177e-06
-1.92738e-07
-4.60841e-06
-2.43354e-07
-4.31021e-06
-2.98203e-07
-3.9606e-06
-3.49609e-07
-3.57251e-06
-3.88095e-07
-3.16505e-06
-4.07451e-07
-2.75723e-06
-4.07822e-07
-2.36302e-06
-3.94216e-07
-1.99096e-06
-3.7206e-07
-1.64667e-06
-3.44282e-07
-1.33439e-06
-3.12283e-07
-1.05621e-06
-2.7818e-07
-8.15021e-07
-2.41191e-07
-6.12172e-07
-2.02849e-07
-4.45042e-07
-1.6713e-07
-3.07416e-07
-1.37626e-07
-1.87413e-07
-1.20003e-07
-6.92765e-08
-1.18137e-07
6.31345e-08
-1.32411e-07
2.23452e-07
-1.60318e-07
4.16964e-07
-1.93512e-07
6.40512e-07
-2.23548e-07
8.86213e-07
-2.45701e-07
1.14534e-06
-2.59126e-07
1.41829e-06
-2.7295e-07
1.70137e-06
-2.83078e-07
1.99666e-06
-2.95295e-07
2.31269e-06
-3.16025e-07
2.63418e-06
-3.21495e-07
2.96774e-06
-3.33557e-07
3.33691e-06
-3.6917e-07
3.70659e-06
-3.69678e-07
4.06797e-06
-3.61387e-07
4.45456e-06
-3.86585e-07
4.73751e-06
-2.8295e-07
4.8431e-06
-1.05594e-07
4.8515e-06
-8.39848e-09
4.50901e-06
3.42491e-07
3.60213e-06
9.06884e-07
2.55828e-06
1.04385e-06
1.77495e-06
7.83324e-07
1.23416e-06
5.40789e-07
8.38827e-07
3.95337e-07
9.16209e-07
-7.73813e-08
1.54639e-06
-6.30176e-07
1.64487e-06
-9.84862e-08
1.024e-06
6.20873e-07
1.13576e-06
-1.11762e-07
1.9396e-06
-8.03841e-07
2.03813e-06
-9.85288e-08
5.81978e-07
1.45615e-06
-1.91985e-06
2.50183e-06
-4.41286e-06
2.49301e-06
-6.49109e-06
2.07823e-06
-8.10869e-06
1.6176e-06
-9.32017e-06
1.21148e-06
-1.02168e-05
8.96619e-07
-1.08822e-05
6.65417e-07
-1.13828e-05
5.00616e-07
-1.17652e-05
3.8237e-07
-1.20583e-05
2.93148e-07
-1.22777e-05
2.19358e-07
-1.24291e-05
1.51364e-07
-1.25125e-05
8.34477e-08
-1.25251e-05
1.25431e-08
-1.2465e-05
-6.0077e-08
-1.23308e-05
-1.34186e-07
-1.21201e-05
-2.10662e-07
-1.18329e-05
-2.87235e-07
-1.14714e-05
-3.61509e-07
-1.10406e-05
-4.30811e-07
-1.05479e-05
-4.92667e-07
-1.00027e-05
-5.45252e-07
-9.41529e-06
-5.87363e-07
-8.79675e-06
-6.18544e-07
-8.15779e-06
-6.38954e-07
-7.50859e-06
-6.492e-07
-6.85839e-06
-6.50198e-07
-6.21535e-06
-6.43046e-07
-5.58641e-06
-6.28935e-07
-4.97734e-06
-6.09072e-07
-4.39265e-06
-5.84687e-07
-3.83564e-06
-5.57019e-07
-3.30841e-06
-5.27225e-07
-2.81206e-06
-4.96348e-07
-2.34671e-06
-4.6535e-07
-1.91167e-06
-4.35039e-07
-1.50556e-06
-4.06116e-07
-1.12632e-06
-3.79242e-07
-7.71504e-07
-3.54812e-07
-4.38555e-07
-3.32948e-07
-1.25372e-07
-3.13183e-07
1.68723e-07
-2.94096e-07
4.43282e-07
-2.74559e-07
6.99722e-07
-2.5644e-07
9.4008e-07
-2.40359e-07
1.16593e-06
-2.25848e-07
1.37857e-06
-2.12639e-07
1.57932e-06
-2.00755e-07
1.7697e-06
-1.90376e-07
1.95191e-06
-1.82212e-07
2.12978e-06
-1.77867e-07
2.30959e-06
-1.79807e-07
2.50028e-06
-1.90695e-07
2.71184e-06
-2.11558e-07
2.95145e-06
-2.39616e-07
3.21821e-06
-2.66755e-07
3.49868e-06
-2.80475e-07
3.76956e-06
-2.70873e-07
4.00683e-06
-2.37274e-07
4.19081e-06
-1.83975e-07
4.30419e-06
-1.13385e-07
4.33673e-06
-3.25437e-08
4.29536e-06
4.13734e-08
4.19531e-06
1.00053e-07
4.04371e-06
1.51601e-07
3.84211e-06
2.01596e-07
3.59889e-06
2.43218e-07
3.33843e-06
2.60462e-07
3.09842e-06
2.40008e-07
2.9075e-06
1.90924e-07
2.76231e-06
1.45184e-07
2.64548e-06
1.1683e-07
2.55369e-06
9.17964e-08
2.47482e-06
7.88652e-08
2.37734e-06
9.74872e-08
2.27697e-06
1.00362e-07
2.23444e-06
4.25344e-08
2.19709e-06
3.73497e-08
1.98353e-06
2.13557e-07
1.54802e-06
4.3551e-07
1.07049e-06
4.77533e-07
7.10718e-07
3.59772e-07
1.30789e-07
5.79929e-07
-1.04639e-07
2.45432e-07
4.58166e-09
-2.1325e-08
3.18138e-07
-3.79046e-07
6.9191e-07
-5.63096e-07
1.04013e-06
-5.83809e-07
1.32503e-06
-4.93879e-07
1.53117e-06
-3.38403e-07
1.65067e-06
-1.47204e-07
1.67872e-06
6.04102e-08
1.60605e-06
2.68449e-07
1.42425e-06
4.58148e-07
1.12782e-06
6.12194e-07
7.15767e-07
7.12894e-07
2.08823e-07
7.45167e-07
-3.32954e-07
7.01305e-07
-8.32293e-07
5.8872e-07
-1.24987e-06
4.42595e-07
-1.62304e-06
3.63839e-07
-2.02729e-06
4.20366e-07
-2.4609e-06
5.33826e-07
-2.87914e-06
7.09175e-07
-3.25625e-06
9.16487e-07
-3.54977e-06
9.4103e-07
-3.75521e-06
7.43104e-07
-3.88887e-06
5.20295e-07
-3.94983e-06
3.75528e-07
-3.98073e-06
2.64438e-07
-4.02286e-06
1.94255e-07
-4.0808e-06
1.85216e-07
-4.16189e-06
1.94409e-07
-4.26757e-06
2.00841e-07
-4.38845e-06
2.19055e-07
-4.52228e-06
2.41963e-07
-4.66541e-06
2.53795e-07
-4.80828e-06
2.54669e-07
-4.94458e-06
2.46088e-07
-5.07e-06
2.25615e-07
-5.17919e-06
1.9448e-07
-5.2681e-06
1.55283e-07
-5.33465e-06
1.09073e-07
-5.37722e-06
5.68399e-08
-5.3933e-06
-3.08187e-10
-5.37934e-06
-6.18916e-08
-5.33006e-06
-1.29118e-07
-5.23729e-06
-2.05607e-07
-5.09097e-06
-2.95824e-07
-4.882e-06
-4.01704e-07
-4.60628e-06
-5.19074e-07
-4.26825e-06
-6.36239e-07
-3.88125e-06
-7.36603e-07
-3.46408e-06
-8.05272e-07
-3.03606e-06
-8.35472e-07
-2.61378e-06
-8.30103e-07
-2.20938e-06
-7.98608e-07
-1.83059e-06
-7.50851e-07
-1.48252e-06
-6.92355e-07
-1.16819e-06
-6.26609e-07
-8.88038e-07
-5.58336e-07
-6.44355e-07
-4.84873e-07
-4.4233e-07
-4.04874e-07
-2.84714e-07
-3.24747e-07
-1.71727e-07
-2.50612e-07
-9.55724e-08
-1.96157e-07
-2.74561e-08
-1.86253e-07
7.03037e-08
-2.30171e-07
2.19163e-07
-3.09177e-07
4.16858e-07
-3.91208e-07
6.47136e-07
-4.53825e-07
8.94667e-07
-4.93232e-07
1.15151e-06
-5.15969e-07
1.41489e-06
-5.36335e-07
1.69133e-06
-5.59518e-07
1.98305e-06
-5.87009e-07
2.28524e-06
-6.18221e-07
2.60745e-06
-6.43702e-07
2.94588e-06
-6.71986e-07
3.29253e-06
-7.15818e-07
3.68228e-06
-7.59433e-07
4.1023e-06
-7.81405e-07
4.48326e-06
-7.67547e-07
4.84559e-06
-6.45272e-07
5.14703e-06
-4.07035e-07
5.2746e-06
-1.35973e-07
5.37947e-06
2.37621e-07
5.53458e-06
7.51773e-07
5.32709e-06
1.25134e-06
4.55728e-06
1.55314e-06
3.5826e-06
1.51547e-06
2.75224e-06
1.22569e-06
2.14589e-06
5.28966e-07
1.82887e-06
-3.13149e-07
1.83627e-06
-1.0589e-07
2.34965e-06
1.07495e-07
2.71367e-06
-4.75787e-07
1.54706e-06
3.62773e-07
-1.08297e-06
2.53149e-06
-3.71834e-06
4.09152e-06
-5.69945e-06
4.48294e-06
-7.21956e-06
4.01312e-06
-8.41021e-06
3.26888e-06
-9.33096e-06
2.53835e-06
-1.00417e-05
1.92222e-06
-1.05886e-05
1.44352e-06
-1.10109e-05
1.08768e-06
-1.1338e-05
8.27795e-07
-1.15928e-05
6.37144e-07
-1.17893e-05
4.89628e-07
-1.19345e-05
3.64526e-07
-1.20296e-05
2.4645e-07
-1.2072e-05
1.25935e-07
-1.20577e-05
-1.79282e-09
-1.19787e-05
-1.39057e-07
-1.1828e-05
-2.84929e-07
-1.16027e-05
-4.3594e-07
-1.13022e-05
-5.87697e-07
-1.09288e-05
-7.34915e-07
-1.04876e-05
-8.72007e-07
-9.98628e-06
-9.94022e-07
-9.43434e-06
-1.0972e-06
-8.84245e-06
-1.17925e-06
-8.22162e-06
-1.23937e-06
-7.58254e-06
-1.27804e-06
-6.9351e-06
-1.29664e-06
-6.28815e-06
-1.29715e-06
-5.64933e-06
-1.28186e-06
-5.02505e-06
-1.25322e-06
-4.42048e-06
-1.21364e-06
-3.83962e-06
-1.16554e-06
-3.28534e-06
-1.1113e-06
-2.7594e-06
-1.05316e-06
-2.26266e-06
-9.93097e-07
-1.79507e-06
-9.32936e-07
-1.35593e-06
-8.74178e-07
-9.43936e-07
-8.18112e-07
-5.57199e-07
-7.65978e-07
-1.94077e-07
-7.17934e-07
1.46536e-07
-6.73561e-07
4.65962e-07
-6.3261e-07
7.66358e-07
-5.94491e-07
1.0503e-06
-5.585e-07
1.31826e-06
-5.24398e-07
1.57003e-06
-4.9213e-07
1.80614e-06
-4.61961e-07
2.02761e-06
-4.34108e-07
2.23562e-06
-4.08766e-07
2.43158e-06
-3.86341e-07
2.6176e-06
-3.68229e-07
2.79737e-06
-3.57639e-07
2.97736e-06
-3.59791e-07
3.16715e-06
-3.80492e-07
3.37812e-06
-4.22519e-07
3.61869e-06
-4.80194e-07
3.8875e-06
-5.35559e-07
4.17005e-06
-5.63031e-07
4.44231e-06
-5.43126e-07
4.67818e-06
-4.73149e-07
4.85911e-06
-3.64903e-07
4.98103e-06
-2.35308e-07
5.0492e-06
-1.0071e-07
5.06574e-06
2.48354e-08
5.03269e-06
1.33096e-07
4.95874e-06
2.25552e-07
4.85227e-06
3.08065e-07
4.71689e-06
3.78603e-07
4.55905e-06
4.183e-07
4.39345e-06
4.05611e-07
4.23142e-06
3.52954e-07
4.07004e-06
3.06567e-07
3.89046e-06
2.96404e-07
3.67094e-06
3.11322e-07
3.42866e-06
3.2114e-07
3.23417e-06
2.91985e-07
3.11202e-06
2.22507e-07
3.02937e-06
1.25188e-07
2.9842e-06
8.25172e-08
2.99765e-06
2.00109e-07
2.99635e-06
4.36804e-07
2.95828e-06
5.1561e-07
2.91996e-06
3.9809e-07
1.76455e-07
2.87429e-06
8.57238e-08
1.59708e-07
5.47391e-07
-4.82992e-07
1.04651e-06
-8.78168e-07
1.45569e-06
-9.72275e-07
1.76388e-06
-8.91999e-07
1.99056e-06
-7.20554e-07
2.15347e-06
-5.01317e-07
2.26066e-06
-2.54398e-07
2.31222e-06
8.85297e-09
2.30924e-06
2.71426e-07
2.24207e-06
5.2532e-07
2.09479e-06
7.5948e-07
1.84449e-06
9.63189e-07
1.46533e-06
1.12433e-06
9.40676e-07
1.22596e-06
2.79612e-07
1.24978e-06
-4.57589e-07
1.1798e-06
-1.1452e-06
1.05145e-06
-1.70687e-06
9.82033e-07
-2.17623e-06
1.00319e-06
-2.54078e-06
1.07373e-06
-2.77515e-06
1.15085e-06
-2.92856e-06
1.09444e-06
-3.04089e-06
8.55438e-07
-3.09638e-06
5.75781e-07
-3.09027e-06
3.69417e-07
-3.07464e-06
2.48813e-07
-3.09176e-06
2.11373e-07
-3.15523e-06
2.48687e-07
-3.2811e-06
3.20276e-07
-3.46959e-06
3.89338e-07
-3.69353e-06
4.42987e-07
-3.9299e-06
4.7834e-07
-4.17371e-06
4.97602e-07
-4.41869e-06
4.9965e-07
-4.65263e-06
4.80021e-07
-4.8668e-06
4.39792e-07
-5.05578e-06
3.83456e-07
-5.21595e-06
3.15456e-07
-5.34616e-06
2.39283e-07
-5.44544e-06
1.56115e-07
-5.51007e-06
6.43225e-08
-5.53209e-06
-3.98702e-08
-5.49995e-06
-1.6126e-07
-5.40236e-06
-3.03194e-07
-5.23341e-06
-4.64775e-07
-4.99611e-06
-6.39007e-07
-4.70224e-06
-8.12942e-07
-4.36829e-06
-9.70184e-07
-4.0092e-06
-1.09569e-06
-3.63407e-06
-1.1804e-06
-3.24713e-06
-1.22241e-06
-2.85241e-06
-1.22483e-06
-2.45735e-06
-1.19367e-06
-2.07188e-06
-1.13632e-06
-1.70574e-06
-1.05849e-06
-1.36985e-06
-9.62496e-07
-1.07546e-06
-8.52734e-07
-8.2953e-07
-7.30799e-07
-6.3799e-07
-5.96414e-07
-5.03827e-07
-4.5891e-07
-4.12419e-07
-3.4202e-07
-3.23317e-07
-2.85259e-07
-1.91538e-07
-3.18032e-07
-4.6275e-09
-4.17081e-07
2.16499e-07
-5.30303e-07
4.45966e-07
-6.20675e-07
6.6968e-07
-6.77539e-07
8.85083e-07
-7.08635e-07
1.09802e-06
-7.28911e-07
1.31534e-06
-7.53654e-07
1.54875e-06
-7.92929e-07
1.8072e-06
-8.45457e-07
2.0829e-06
-8.93915e-07
2.37335e-06
-9.34159e-07
2.67922e-06
-9.77854e-07
3.00709e-06
-1.04368e-06
3.38678e-06
-1.13913e-06
3.82823e-06
-1.22286e-06
4.30236e-06
-1.24168e-06
4.78157e-06
-1.12447e-06
5.19131e-06
-8.16777e-07
5.44353e-06
-3.88192e-07
5.60803e-06
7.31201e-08
5.7813e-06
5.78498e-07
5.89557e-06
1.13707e-06
5.8456e-06
1.60311e-06
5.47572e-06
1.88535e-06
4.75903e-06
1.94238e-06
3.90996e-06
1.37804e-06
3.20799e-06
3.88822e-07
3.09842e-06
3.67857e-09
3.21955e-06
-1.36337e-08
2.04194e-06
7.01819e-07
-6.25371e-07
3.03009e-06
-3.36561e-06
5.27173e-06
-5.2826e-06
6.00851e-06
-6.46757e-06
5.66791e-06
-7.32098e-06
4.86653e-06
-8.0377e-06
3.98559e-06
-8.6539e-06
3.15455e-06
-9.17233e-06
2.44066e-06
-9.59497e-06
1.86615e-06
-9.93648e-06
1.42919e-06
-1.02143e-05
1.10565e-06
-1.04436e-05
8.66399e-07
-1.06336e-05
6.79664e-07
-1.0786e-05
5.16901e-07
-1.08967e-05
3.57137e-07
-1.09584e-05
1.87688e-07
-1.09632e-05
2.96774e-09
-1.09033e-05
-1.99011e-07
-1.07717e-05
-4.16463e-07
-1.05636e-05
-6.441e-07
-1.02769e-05
-8.7432e-07
-9.91357e-06
-1.09828e-06
-9.47878e-06
-1.3068e-06
-8.98104e-06
-1.49177e-06
-8.43109e-06
-1.64714e-06
-7.84104e-06
-1.7693e-06
-7.22335e-06
-1.85707e-06
-6.59007e-06
-1.91132e-06
-5.95225e-06
-1.93446e-06
-5.31959e-06
-1.92981e-06
-4.70022e-06
-1.90123e-06
-4.10061e-06
-1.85282e-06
-3.52562e-06
-1.78864e-06
-2.97845e-06
-1.71271e-06
-2.46087e-06
-1.62889e-06
-1.97332e-06
-1.54071e-06
-1.51527e-06
-1.45114e-06
-1.08546e-06
-1.36275e-06
-6.8218e-07
-1.27746e-06
-3.03579e-07
-1.19671e-06
5.20117e-08
-1.12157e-06
3.86315e-07
-1.05224e-06
7.02507e-07
-9.89753e-07
1.00485e-06
-9.34956e-07
1.29653e-06
-8.86165e-07
1.57846e-06
-8.40437e-07
1.84957e-06
-7.955e-07
2.1082e-06
-7.50763e-07
2.35315e-06
-7.06909e-07
2.58378e-06
-6.64743e-07
2.79972e-06
-6.24704e-07
3.00079e-06
-5.87415e-07
3.18774e-06
-5.55176e-07
3.36369e-06
-5.33591e-07
3.53606e-06
-5.32158e-07
3.7179e-06
-5.62335e-07
3.92666e-06
-6.31275e-07
4.17784e-06
-7.31369e-07
4.474e-06
-8.31723e-07
4.79488e-06
-8.83913e-07
5.09829e-06
-8.46536e-07
5.33667e-06
-7.11525e-07
5.4811e-06
-5.09334e-07
5.53465e-06
-2.88856e-07
5.52143e-06
-8.74922e-08
5.4619e-06
8.43643e-08
5.36482e-06
2.3018e-07
5.24057e-06
3.49795e-07
5.10541e-06
4.43227e-07
4.96706e-06
5.16957e-07
4.82019e-06
5.65172e-07
4.66238e-06
5.63419e-07
4.50185e-06
5.13476e-07
4.33668e-06
4.71738e-07
4.13874e-06
4.94347e-07
3.88892e-06
5.61142e-07
3.61821e-06
5.91855e-07
3.39531e-06
5.14879e-07
3.26105e-06
3.56769e-07
3.18686e-06
1.99379e-07
3.14224e-06
1.27134e-07
3.16196e-06
1.80392e-07
3.25834e-06
3.40419e-07
3.36642e-06
4.07537e-07
3.45681e-06
3.07693e-07
1.42088e-07
3.49118e-06
4.63077e-07
-3.03368e-07
1.0561e-06
-1.07601e-06
1.45805e-06
-1.28012e-06
1.69918e-06
-1.21341e-06
1.85612e-06
-1.04894e-06
1.97912e-06
-8.4355e-07
2.09346e-06
-6.15656e-07
2.20413e-06
-3.65067e-07
2.29894e-06
-8.59631e-08
2.35944e-06
2.10929e-07
2.37884e-06
5.05926e-07
2.34853e-06
7.89783e-07
2.25485e-06
1.05687e-06
2.07751e-06
1.30168e-06
1.78766e-06
1.5158e-06
1.35653e-06
1.68092e-06
7.72455e-07
1.76387e-06
8.16785e-08
1.74223e-06
-5.87712e-07
1.65142e-06
-1.14418e-06
1.55966e-06
-1.56267e-06
1.49221e-06
-1.84392e-06
1.43211e-06
-2.04928e-06
1.2998e-06
-2.23184e-06
1.03801e-06
-2.37604e-06
7.19981e-07
-2.45655e-06
4.49921e-07
-2.49967e-06
2.91938e-07
-2.56715e-06
2.78847e-07
-2.71604e-06
3.97584e-07
-2.96228e-06
5.66516e-07
-3.27571e-06
7.02766e-07
-3.62022e-06
7.87498e-07
-3.97311e-06
8.31227e-07
-4.31375e-06
8.38245e-07
-4.62857e-06
8.14473e-07
-4.91445e-06
7.65895e-07
-5.1709e-06
6.96248e-07
-5.39764e-06
6.10189e-07
-5.59325e-06
5.11071e-07
-5.75324e-06
3.99273e-07
-5.86975e-06
2.72627e-07
-5.9327e-06
1.27272e-07
-5.93262e-06
-3.99536e-08
-5.86437e-06
-2.29509e-07
-5.73001e-06
-4.37554e-07
-5.53928e-06
-6.55507e-07
-5.30665e-06
-8.71642e-07
-5.04607e-06
-1.07352e-06
-4.76564e-06
-1.25061e-06
-4.465e-06
-1.39633e-06
-4.13766e-06
-1.50774e-06
-3.77723e-06
-1.58284e-06
-3.38326e-06
-1.6188e-06
-2.96317e-06
-1.61376e-06
-2.53066e-06
-1.56883e-06
-2.1021e-06
-1.48705e-06
-1.69462e-06
-1.36998e-06
-1.32733e-06
-1.22003e-06
-1.01401e-06
-1.04412e-06
-7.55085e-07
-8.55336e-07
-5.31579e-07
-6.82417e-07
-3.1147e-07
-5.6213e-07
-7.73463e-08
-5.19383e-07
1.57525e-07
-5.52903e-07
3.70251e-07
-6.29807e-07
5.48344e-07
-7.08395e-07
6.93217e-07
-7.65548e-07
8.17154e-07
-8.01477e-07
9.36827e-07
-8.28307e-07
1.06692e-06
-8.59003e-07
1.21796e-06
-9.04696e-07
1.40003e-06
-9.74996e-07
1.61933e-06
-1.06476e-06
1.86774e-06
-1.14232e-06
2.12845e-06
-1.19487e-06
2.39394e-06
-1.24334e-06
2.68862e-06
-1.33836e-06
3.04958e-06
-1.50009e-06
3.49737e-06
-1.67065e-06
4.03325e-06
-1.77756e-06
4.60638e-06
-1.69761e-06
5.11514e-06
-1.32553e-06
5.49353e-06
-7.66582e-07
5.73011e-06
-1.63464e-07
5.83572e-06
4.72891e-07
5.92368e-06
1.04912e-06
6.08497e-06
1.44182e-06
6.07168e-06
1.89864e-06
5.62556e-06
2.38851e-06
4.9647e-06
2.03889e-06
4.43723e-06
9.16301e-07
4.06464e-06
3.76264e-07
3.0437e-06
1.00731e-06
6.9174e-07
3.05378e-06
-2.11013e-06
5.83196e-06
-4.18305e-06
7.34465e-06
-5.4082e-06
7.23367e-06
-6.20724e-06
6.46694e-06
-6.83835e-06
5.49764e-06
-7.37302e-06
4.52027e-06
-7.81274e-06
3.59427e-06
-8.16635e-06
2.79427e-06
-8.45486e-06
2.15466e-06
-8.70171e-06
1.67604e-06
-8.92729e-06
1.33123e-06
-9.14378e-06
1.08289e-06
-9.3555e-06
8.91387e-07
-9.55706e-06
7.18463e-07
-9.73565e-06
5.35724e-07
-9.87501e-06
3.27052e-07
-9.95865e-06
8.66062e-08
-9.97189e-06
-1.85773e-07
-9.90285e-06
-4.85498e-07
-9.74379e-06
-8.03161e-07
-9.49152e-06
-1.12659e-06
-9.14762e-06
-1.44218e-06
-8.71828e-06
-1.73614e-06
-8.21359e-06
-1.99646e-06
-7.64624e-06
-2.21449e-06
-7.03039e-06
-2.38515e-06
-6.38059e-06
-2.50687e-06
-5.71093e-06
-2.58098e-06
-5.03464e-06
-2.61074e-06