/*--------------------------------*- C++ -*----------------------------------*\
  =========                 |
  \\      /  F ield         | OpenFOAM: The Open Source CFD Toolbox
   \\    /   O peration     | Website:  https://openfoam.org
    \\  /    A nd           | Version:  6
     \\/     M anipulation  |
\*---------------------------------------------------------------------------*/
FoamFile
{
    version     2.0;
    format      ascii;
    class       volSymmTensorField;
    location    "0.5";
    object      UPrime2Mean;
}
// * * * * * * * * * * * * * * * * * * * * * * * * * * * * * * * * * * * * * //

dimensions      [0 2 -2 0 0 0 0];

internalField   nonuniform List<symmTensor> 
12225
(
(0.0222787 -7.50957e-05 0 0.00369451 0 0)
(0.0142864 -0.000230326 0 0.00203815 0 0)
(0.0129266 -0.0002369 0 0.00144446 0 0)
(0.0128805 -0.000222795 0 0.00109986 0 0)
(0.0133657 -0.000219929 0 0.000872047 0 0)
(0.0148303 -0.000242208 0 0.000710793 0 0)
(0.0180797 -0.000342586 0 0.000595763 0 0)
(0.0233794 -0.000445581 0 0.000505417 0 0)
(0.0322553 -0.000792161 0 0.000451373 0 0)
(0.0441314 -0.000920247 0 0.000391595 0 0)
(0.0646669 -0.0020826 0 0.000405219 0 0)
(0.0893034 -0.00195203 0 0.000355941 0 0)
(0.138061 -0.00589086 0 0.000551437 0 0)
(0.189891 -0.00418254 0 0.000507699 0 0)
(0.312588 -0.0181653 0 0.00153475 0 0)
(0.430364 -0.00972775 0 0.00160845 0 0)
(0.773528 -0.0650312 0 0.00794113 0 0)
(1.12056 -0.0248798 0 0.00520388 0 0)
(0.0239945 0.000317249 0 0.00330113 0 0)
(0.0167619 0.000386683 0 0.00167102 0 0)
(0.0144697 0.000324303 0 0.0011847 0 0)
(0.013205 0.00025208 0 0.000961109 0 0)
(0.0123773 0.000200276 0 0.00082973 0 0)
(0.0120502 0.000113105 0 0.000744823 0 0)
(0.0124076 -5.36962e-05 0 0.000684853 0 0)
(0.0136247 -0.00035821 0 0.000663984 0 0)
(0.0160395 -0.000774528 0 0.000653334 0 0)
(0.0201174 -0.00151088 0 0.000726641 0 0)
(0.0267741 -0.0024298 0 0.000797262 0 0)
(0.0372778 -0.00428338 0 0.00107668 0 0)
(0.0537712 -0.00654506 0 0.00135946 0 0)
(0.0798661 -0.011429 0 0.00222299 0 0)
(0.120298 -0.0179035 0 0.00332553 0 0)
(0.188481 -0.0320414 0 0.00621391 0 0)
(0.291234 -0.055876 0 0.0116683 0 0)
(0.479112 -0.106943 0 0.0266951 0 0)
(0.0249572 0.000163131 0 0.00407581 0 0)
(0.0176218 0.000313106 0 0.00213686 0 0)
(0.0154474 0.000143992 0 0.00146365 0 0)
(0.014197 -1.35054e-05 0 0.00118131 0 0)
(0.0133993 -0.000128181 0 0.00103343 0 0)
(0.0131608 -0.000256883 0 0.000951135 0 0)
(0.013554 -0.000462034 0 0.000916894 0 0)
(0.0146173 -0.000793211 0 0.000929241 0 0)
(0.0164824 -0.00130705 0 0.0010078 0 0)
(0.0193931 -0.00208265 0 0.00116761 0 0)
(0.0237613 -0.00328938 0 0.00146493 0 0)
(0.0302006 -0.00512521 0 0.00195835 0 0)
(0.0396001 -0.00804074 0 0.00283296 0 0)
(0.053341 -0.0125784 0 0.00432199 0 0)
(0.0734171 -0.0200282 0 0.00712135 0 0)
(0.102506 -0.032688 0 0.0125328 0 0)
(0.143575 -0.0546188 0 0.0238957 0 0)
(0.191862 -0.0971883 0 0.0562032 0 0)
(0.0234976 0.000250004 0 0.00476362 0 0)
(0.0158393 0.000174562 0 0.00264248 0 0)
(0.0135218 1.29596e-05 0 0.00183977 0 0)
(0.0123549 -0.000116879 0 0.00151152 0 0)
(0.0116745 -0.000241958 0 0.00135373 0 0)
(0.0114416 -0.000414119 0 0.00127747 0 0)
(0.0116998 -0.000682414 0 0.00125681 0 0)
(0.0125527 -0.00110343 0 0.00130401 0 0)
(0.0141682 -0.0017391 0 0.00144229 0 0)
(0.0168154 -0.00269889 0 0.0017106 0 0)
(0.0208105 -0.00414535 0 0.00218192 0 0)
(0.0267095 -0.00633078 0 0.00295125 0 0)
(0.0350832 -0.00971618 0 0.00429015 0 0)
(0.0470162 -0.0148641 0 0.0065052 0 0)
(0.0633227 -0.0231999 0 0.0106818 0 0)
(0.0851776 -0.0362013 0 0.0182021 0 0)
(0.111656 -0.0578239 0 0.0342511 0 0)
(0.137977 -0.089474 0 0.0651982 0 0)
(0.024914 0.000224956 0 0.00495017 0 0)
(0.0171237 0.00037492 0 0.00285375 0 0)
(0.0147256 0.000154645 0 0.00199274 0 0)
(0.0136713 -4.92018e-05 0 0.00166085 0 0)
(0.013039 -0.000220655 0 0.00152973 0 0)
(0.0127332 -0.000432346 0 0.00149964 0 0)
(0.0128647 -0.0007482 0 0.00154211 0 0)
(0.0135712 -0.00123952 0 0.00167305 0 0)
(0.0150104 -0.00199046 0 0.00192731 0 0)
(0.0173866 -0.00312865 0 0.00237183 0 0)
(0.0210189 -0.00483234 0 0.0030927 0 0)
(0.0263312 -0.0073982 0 0.00426709 0 0)
(0.0339383 -0.0112444 0 0.0061685 0 0)
(0.0444393 -0.0170878 0 0.00936854 0 0)
(0.0585833 -0.0259394 0 0.0148319 0 0)
(0.0761669 -0.0394526 0 0.0247273 0 0)
(0.0964868 -0.0591283 0 0.0422258 0 0)
(0.115526 -0.0853689 0 0.0730839 0 0)
(0.0243233 0.000187416 0 0.0052889 0 0)
(0.0163793 7.17094e-05 0 0.00319731 0 0)
(0.0141928 -8.41088e-05 0 0.00221833 0 0)
(0.0132608 -0.000238367 0 0.00184717 0 0)
(0.0127165 -0.000411211 0 0.00171575 0 0)
(0.0125257 -0.00065862 0 0.00171175 0 0)
(0.0127636 -0.00103538 0 0.00180919 0 0)
(0.0135213 -0.00161363 0 0.0020254 0 0)
(0.0149448 -0.00249027 0 0.00240788 0 0)
(0.0172313 -0.00380019 0 0.00303469 0 0)
(0.0206577 -0.00574151 0 0.00403192 0 0)
(0.0255473 -0.00859511 0 0.00560802 0 0)
(0.0323382 -0.0127958 0 0.00812203 0 0)
(0.0413601 -0.0189465 0 0.0122084 0 0)
(0.0529542 -0.0279112 0 0.0189348 0 0)
(0.0666506 -0.0407174 0 0.0302386 0 0)
(0.0817432 -0.0579885 0 0.0486035 0 0)
(0.095564 -0.0793775 0 0.0779005 0 0)
(0.0240816 -1.30381e-05 0 0.00534206 0 0)
(0.0169686 0.000100913 0 0.00340879 0 0)
(0.0150197 -0.000115655 0 0.00238117 0 0)
(0.014141 -0.000377988 0 0.00201285 0 0)
(0.0136069 -0.000637878 0 0.0019403 0 0)
(0.0133743 -0.000978106 0 0.00203191 0 0)
(0.0135439 -0.00147356 0 0.00224651 0 0)
(0.0142563 -0.00219772 0 0.00260398 0 0)
(0.0156546 -0.00324827 0 0.00316819 0 0)
(0.0178797 -0.00476795 0 0.00404858 0 0)
(0.0211266 -0.00695945 0 0.00540128 0 0)
(0.0256274 -0.0101079 0 0.0074875 0 0)
(0.0316712 -0.0146036 0 0.0107057 0 0)
(0.0394171 -0.0209685 0 0.015761 0 0)
(0.0489261 -0.0298077 0 0.0236681 0 0)
(0.0596994 -0.0417115 0 0.0361374 0 0)
(0.0710721 -0.0567893 0 0.0550068 0 0)
(0.0812638 -0.0743853 0 0.0829019 0 0)
(0.0241055 4.11599e-05 0 0.00606665 0 0)
(0.0165144 0.000121282 0 0.00396918 0 0)
(0.014379 -0.000131564 0 0.00281858 0 0)
(0.0134099 -0.000395373 0 0.00240363 0 0)
(0.0128491 -0.000627604 0 0.00231824 0 0)
(0.0126676 -0.000935067 0 0.00242364 0 0)
(0.0128818 -0.00141935 0 0.00268806 0 0)
(0.0135369 -0.00216412 0 0.0031442 0 0)
(0.0147259 -0.0032643 0 0.0038705 0 0)
(0.0165789 -0.0048534 0 0.00499415 0 0)
(0.0192669 -0.00711922 0 0.00669588 0 0)
(0.0229694 -0.010314 0 0.00926892 0 0)
(0.0278693 -0.0147572 0 0.0131389 0 0)
(0.0340185 -0.0208381 0 0.019013 0 0)
(0.0413257 -0.0289329 0 0.0278068 0 0)
(0.0493499 -0.0393282 0 0.0409644 0 0)
(0.0575016 -0.0518324 0 0.0598508 0 0)
(0.0646751 -0.0657623 0 0.0864201 0 0)
(0.0250273 0.000289605 0 0.00631769 0 0)
(0.0175055 0.000287006 0 0.0043548 0 0)
(0.0153562 4.75851e-05 0 0.00317061 0 0)
(0.014345 -0.000274385 0 0.002733 0 0)
(0.0137593 -0.000594933 0 0.00268162 0 0)
(0.0135541 -0.000980386 0 0.00286674 0 0)
(0.0137266 -0.00152575 0 0.00325188 0 0)
(0.0142917 -0.00232149 0 0.00387518 0 0)
(0.0152967 -0.00346772 0 0.00482816 0 0)
(0.0168226 -0.00509546 0 0.00625823 0 0)
(0.0189907 -0.00737979 0 0.00837158 0 0)
(0.021915 -0.0105422 0 0.0114874 0 0)
(0.0256858 -0.0148368 0 0.0160426 0 0)
(0.0302733 -0.0205236 0 0.0227117 0 0)
(0.0355283 -0.0277986 0 0.0323003 0 0)
(0.0411015 -0.0367132 0 0.0459951 0 0)
(0.0465685 -0.0469379 0 0.0648028 0 0)
(0.051286 -0.0577945 0 0.0901229 0 0)
(0.0241643 -0.000127041 0 0.00648203 0 0)
(0.0166836 -9.33468e-05 0 0.00458384 0 0)
(0.0148201 -0.000248094 0 0.00339629 0 0)
(0.0140273 -0.000411769 0 0.002976 0 0)
(0.0134894 -0.000578396 0 0.00297305 0 0)
(0.0131806 -0.000844425 0 0.00322426 0 0)
(0.013139 -0.00129766 0 0.0036953 0 0)
(0.0133989 -0.00201399 0 0.00444075 0 0)
(0.0140185 -0.00308454 0 0.0055738 0 0)
(0.0150729 -0.00462469 0 0.00726125 0 0)
(0.016655 -0.00677837 0 0.00972101 0 0)
(0.0188162 -0.00971109 0 0.0132773 0 0)
(0.02158 -0.0136055 0 0.0183498 0 0)
(0.024845 -0.0186115 0 0.0255563 0 0)
(0.0284664 -0.0248122 0 0.0355739 0 0)
(0.0321167 -0.0321262 0 0.0493751 0 0)
(0.0356035 -0.0402011 0 0.0676625 0 0)
(0.0384018 -0.0483899 0 0.0914554 0 0)
(0.0236823 1.85376e-05 0 0.00693966 0 0)
(0.0163891 -1.59616e-05 0 0.00525491 0 0)
(0.0145273 -0.000395135 0 0.00401196 0 0)
(0.0138592 -0.000814238 0 0.00357648 0 0)
(0.0135094 -0.00118041 0 0.00362268 0 0)
(0.0134004 -0.00159464 0 0.00397895 0 0)
(0.0135839 -0.00218399 0 0.00460602 0 0)
(0.014096 -0.00304811 0 0.00556224 0 0)
(0.0149323 -0.00427363 0 0.00696936 0 0)
(0.0160744 -0.00595034 0 0.00900565 0 0)
(0.0175358 -0.00818165 0 0.0118959 0 0)
(0.019329 -0.011078 0 0.0159591 0 0)
(0.0214799 -0.0147459 0 0.0215789 0 0)
(0.0238988 -0.0192372 0 0.0293022 0 0)
(0.0264855 -0.0245287 0 0.0396636 0 0)
(0.0289845 -0.0304456 0 0.0534472 0 0)
(0.0313061 -0.036604 0 0.0710816 0 0)
(0.0331302 -0.0424534 0 0.0933467 0 0)
(0.0234014 0.000209162 0 0.00712822 0 0)
(0.0163212 2.60171e-05 0 0.00536297 0 0)
(0.0144203 -0.000148071 0 0.00408779 0 0)
(0.0136828 -0.000436853 0 0.00362184 0 0)
(0.0132945 -0.000723588 0 0.00366499 0 0)
(0.0130919 -0.00106786 0 0.00404909 0 0)
(0.0130557 -0.00157671 0 0.004731 0 0)
(0.0132179 -0.00233981 0 0.00577362 0 0)
(0.0136135 -0.00342893 0 0.00730709 0 0)
(0.0142555 -0.00491176 0 0.00951681 0 0)
(0.0151636 -0.00686643 0 0.0126257 0 0)
(0.0163222 -0.00936946 0 0.0169398 0 0)
(0.017728 -0.0124818 0 0.0228023 0 0)
(0.0192904 -0.0161932 0 0.0306945 0 0)
(0.0209118 -0.0204185 0 0.0410285 0 0)
(0.0224383 -0.0249512 0 0.0544429 0 0)
(0.0238169 -0.0294192 0 0.071166 0 0)
(0.024916 -0.0333686 0 0.0918377 0 0)
(0.0245806 -0.000206466 0 0.00763555 0 0)
(0.017024 -0.000607688 0 0.00586991 0 0)
(0.0150432 -0.000901987 0 0.00455573 0 0)
(0.0141258 -0.0011713 0 0.00412971 0 0)
(0.0134939 -0.00139023 0 0.00425683 0 0)
(0.0130828 -0.00164832 0 0.00477148 0 0)
(0.0129136 -0.00206541 0 0.00563679 0 0)
(0.0130011 -0.00274141 0 0.00690816 0 0)
(0.0133477 -0.00374553 0 0.00870642 0 0)
(0.0139352 -0.0051205 0 0.0112146 0 0)
(0.0147361 -0.0069021 0 0.0146468 0 0)
(0.015684 -0.00911669 0 0.0192882 0 0)
(0.0167204 -0.0117741 0 0.0254348 0 0)
(0.0177461 -0.0148167 0 0.0334955 0 0)
(0.018683 -0.0181226 0 0.0437749 0 0)
(0.0194761 -0.0214876 0 0.0567873 0 0)
(0.0201498 -0.024556 0 0.0726147 0 0)
(0.0207037 -0.0269969 0 0.0917879 0 0)
(0.0249451 -0.000514611 0 0.00822799 0 0)
(0.017503 -0.000712768 0 0.00672962 0 0)
(0.0153848 -0.000860053 0 0.00531512 0 0)
(0.014489 -0.00104985 0 0.00478631 0 0)
(0.0139755 -0.00120178 0 0.004869 0 0)
(0.0136534 -0.00138788 0 0.00539889 0 0)
(0.013487 -0.00172404 0 0.00633195 0 0)
(0.0134367 -0.00228916 0 0.00771526 0 0)
(0.0134802 -0.003121 0 0.00965843 0 0)
(0.0136204 -0.00422854 0 0.0123287 0 0)
(0.0138654 -0.00561049 0 0.0159156 0 0)
(0.0142021 -0.00725547 0 0.0206713 0 0)
(0.014588 -0.00913601 0 0.0268369 0 0)
(0.0149695 -0.0111715 0 0.0347531 0 0)
(0.0152732 -0.0132292 0 0.0446166 0 0)
(0.0154912 -0.0151305 0 0.0568512 0 0)
(0.015664 -0.0165523 0 0.071406 0 0)
(0.0158584 -0.017274 0 0.0887467 0 0)
(0.0251003 9.19583e-05 0 0.00888128 0 0)
(0.0167083 -0.000273929 0 0.00735944 0 0)
(0.0141954 -0.000452103 0 0.0058944 0 0)
(0.0131592 -0.000601341 0 0.00542038 0 0)
(0.0124975 -0.000723423 0 0.00562482 0 0)
(0.0119663 -0.000863607 0 0.00630203 0 0)
(0.0115924 -0.00108792 0 0.00738506 0 0)
(0.0114059 -0.00145364 0 0.0089198 0 0)
(0.0113842 -0.00199913 0 0.0110212 0 0)
(0.0114582 -0.00273385 0 0.0138554 0 0)
(0.0115528 -0.00364443 0 0.017594 0 0)
(0.0116122 -0.00468532 0 0.022449 0 0)
(0.0116179 -0.00579354 0 0.0285942 0 0)
(0.0115791 -0.00685013 0 0.0362871 0 0)
(0.0115008 -0.00771931 0 0.0456201 0 0)
(0.0114435 -0.00823126 0 0.0569109 0 0)
(0.0115088 -0.00814659 0 0.0700245 0 0)
(0.0117448 -0.00728515 0 0.0853333 0 0)
(0.0233967 7.021e-05 0 0.009898 0 0)
(0.0160441 -0.000432753 0 0.00842566 0 0)
(0.014028 -0.000735947 0 0.00672007 0 0)
(0.0131838 -0.000904029 0 0.00604612 0 0)
(0.0126317 -0.000937414 0 0.0061874 0 0)
(0.0120933 -0.00094156 0 0.00692318 0 0)
(0.0116028 -0.0010309 0 0.00812223 0 0)
(0.0112451 -0.00125717 0 0.00978034 0 0)
(0.0110429 -0.00159805 0 0.0119846 0 0)
(0.0109487 -0.00198974 0 0.0148788 0 0)
(0.0108955 -0.00237222 0 0.0185997 0 0)
(0.0108378 -0.00268619 0 0.0233095 0 0)
(0.0107726 -0.00287867 0 0.0291186 0 0)
(0.0107284 -0.00285732 0 0.0362143 0 0)
(0.0107357 -0.00252618 0 0.0446075 0 0)
(0.01087 -0.00174905 0 0.0545589 0 0)
(0.0112457 -0.000367876 0 0.0658549 0 0)
(0.0119281 0.00176552 0 0.078839 0 0)
(0.0249634 0.000259657 0 0.00983623 0 0)
(0.0168122 -0.000126363 0 0.00872024 0 0)
(0.0139731 -0.000542704 0 0.00700937 0 0)
(0.0125911 -0.000658788 0 0.00636736 0 0)
(0.011765 -0.000534317 0 0.00650816 0 0)
(0.0111623 -0.000342929 0 0.00720327 0 0)
(0.0106776 -0.000215803 0 0.0083559 0 0)
(0.0102907 -0.000181008 0 0.00997343 0 0)
(0.00999806 -0.000188188 0 0.0121247 0 0)
(0.00977857 -0.000157172 0 0.0149168 0 0)
(0.00960305 -2.37087e-05 0 0.018442 0 0)
(0.00947558 0.000279243 0 0.0228098 0 0)
(0.00942735 0.00080528 0 0.0280733 0 0)
(0.00951778 0.00165514 0 0.0343537 0 0)
(0.00978518 0.00289662 0 0.0415976 0 0)
(0.0103047 0.00465534 0 0.0500028 0 0)
(0.0111611 0.00699586 0 0.0593273 0 0)
(0.0123945 0.0100622 0 0.0698557 0 0)
(0.0224689 4.98968e-05 0 0.010236 0 0)
(0.014692 -0.000454414 0 0.00951185 0 0)
(0.0120454 -0.000831981 0 0.00785245 0 0)
(0.0105906 -0.000871913 0 0.00718846 0 0)
(0.00967167 -0.000704151 0 0.0073029 0 0)
(0.00903197 -0.000476798 0 0.0079703 0 0)
(0.00858993 -0.000280201 0 0.00907092 0 0)
(0.00833393 -0.000111817 0 0.0105789 0 0)
(0.00824867 9.81939e-05 0 0.0125279 0 0)
(0.00828002 0.000438638 0 0.0149891 0 0)
(0.00836672 0.000974075 0 0.0180197 0 0)
(0.0084968 0.00176097 0 0.0216909 0 0)
(0.00870991 0.00283559 0 0.0260181 0 0)
(0.00908531 0.00426875 0 0.0310773 0 0)
(0.00968155 0.00609995 0 0.0367915 0 0)
(0.0106024 0.00841503 0 0.0433095 0 0)
(0.0119052 0.0112382 0 0.0504105 0 0)
(0.0136845 0.0146753 0 0.0583021 0 0)
(0.0238949 -1.30147e-05 0 0.0101575 0 0)
(0.0163599 2.07309e-05 0 0.00936516 0 0)
(0.0133068 -0.000197629 0 0.00775428 0 0)
(0.0113988 -0.000126491 0 0.00697242 0 0)
(0.0103318 0.000142349 0 0.00693403 0 0)
(0.00972412 0.000444766 0 0.0074511 0 0)
(0.00935466 0.000736306 0 0.00837473 0 0)
(0.00916205 0.00107318 0 0.00963496 0 0)
(0.00915074 0.0015496 0 0.0112245 0 0)
(0.00930041 0.00224464 0 0.0131788 0 0)
(0.00957381 0.00319768 0 0.015531 0 0)
(0.00997665 0.0044342 0 0.0183253 0 0)
(0.0105567 0.00596527 0 0.0215626 0 0)
(0.0113954 0.00782966 0 0.025283 0 0)
(0.0125424 0.0100434 0 0.0294068 0 0)
(0.0140822 0.0126577 0 0.0340373 0 0)
(0.016054 0.0156726 0 0.0389955 0 0)
(0.0185094 0.0191489 0 0.0444185 0 0)
(0.0237898 0.000217431 0 0.0108943 0 0)
(0.0159757 0.000732811 0 0.00938132 0 0)
(0.0133496 0.000600423 0 0.0072228 0 0)
(0.0120279 0.000524576 0 0.00635167 0 0)
(0.0113206 0.000627356 0 0.00622388 0 0)
(0.010969 0.000841895 0 0.00653755 0 0)
(0.0107815 0.00116487 0 0.00716787 0 0)
(0.0106844 0.00163825 0 0.00805346 0 0)
(0.0107151 0.00229873 0 0.00917703 0 0)
(0.0109268 0.00316909 0 0.0105588 0 0)
(0.0113504 0.00426278 0 0.0122161 0 0)
(0.01202 0.00560031 0 0.0141635 0 0)
(0.0129728 0.00719522 0 0.0163872 0 0)
(0.0142644 0.00908008 0 0.0189063 0 0)
(0.0159115 0.0112618 0 0.0216603 0 0)
(0.0179805 0.013769 0 0.0247224 0 0)
(0.0204832 0.0165936 0 0.0279788 0 0)
(0.0234611 0.0197664 0 0.0314933 0 0)
(0.0238236 0.000296822 0 0.00998711 0 0)
(0.0156707 0.000410221 0 0.00857674 0 0)
(0.0133345 0.00034973 0 0.0066615 0 0)
(0.0121197 0.000362988 0 0.00587685 0 0)
(0.011335 0.000442371 0 0.00575317 0 0)
(0.0108489 0.000600644 0 0.00599564 0 0)
(0.0106054 0.000887585 0 0.00646118 0 0)
(0.0105972 0.00135307 0 0.00709136 0 0)
(0.0108391 0.0020148 0 0.00788638 0 0)
(0.0113251 0.00286851 0 0.0088716 0 0)
(0.0120396 0.00390914 0 0.010059 0 0)
(0.0129982 0.00515137 0 0.0114516 0 0)
(0.0142408 0.00661166 0 0.0130313 0 0)
(0.0158321 0.00832322 0 0.0148057 0 0)
(0.0177952 0.0102889 0 0.0167248 0 0)
(0.0201951 0.0125248 0 0.0188475 0 0)
(0.0230372 0.015015 0 0.0210931 0 0)
(0.0263375 0.0177687 0 0.0234969 0 0)
(0.0241897 0.000451713 0 0.00958677 0 0)
(0.0161454 0.000537247 0 0.00807205 0 0)
(0.0139086 0.000454979 0 0.00611367 0 0)
(0.0128622 0.000516976 0 0.00519899 0 0)
(0.0122246 0.000652751 0 0.00492549 0 0)
(0.0118385 0.000838318 0 0.00500053 0 0)
(0.0116367 0.00111086 0 0.00526114 0 0)
(0.0116052 0.00152409 0 0.0056405 0 0)
(0.0117808 0.00210514 0 0.00613461 0 0)
(0.0122119 0.00285684 0 0.00676295 0 0)
(0.0129294 0.00377608 0 0.00753574 0 0)
(0.0139603 0.00487131 0 0.00845484 0 0)
(0.0153255 0.00614957 0 0.00950573 0 0)
(0.0170614 0.00763148 0 0.0106892 0 0)
(0.0191722 0.00931617 0 0.0119671 0 0)
(0.0217037 0.0112134 0 0.0133829 0 0)
(0.0246771 0.0133191 0 0.0148802 0 0)
(0.0280692 0.0156261 0 0.0164687 0 0)
(0.024312 0.000120875 0 0.00908298 0 0)
(0.0165648 0.000226468 0 0.00713961 0 0)
(0.0145181 0.000147489 0 0.00539653 0 0)
(0.0135883 0.000200833 0 0.00463741 0 0)
(0.0129675 0.000346629 0 0.0043726 0 0)
(0.0125444 0.000566918 0 0.00437998 0 0)
(0.0123335 0.000876935 0 0.0045467 0 0)
(0.0123652 0.00129836 0 0.004814 0 0)
(0.0126708 0.00184198 0 0.00516247 0 0)
(0.0132717 0.0025114 0 0.00559611 0 0)
(0.014177 0.00331368 0 0.00612102 0 0)
(0.0153996 0.0042666 0 0.00674113 0 0)
(0.0169633 0.00538436 0 0.00745085 0 0)
(0.0189043 0.00668384 0 0.00825133 0 0)
(0.0212323 0.00816193 0 0.00911532 0 0)
(0.0239802 0.00981505 0 0.0100782 0 0)
(0.027171 0.0116378 0 0.0110991 0 0)
(0.0307501 0.0136124 0 0.0121673 0 0)
(0.0251551 0.000273561 0 0.0080299 0 0)
(0.0177133 0.000166578 0 0.00612114 0 0)
(0.0156725 0.000131759 0 0.00451165 0 0)
(0.0145514 0.000296152 0 0.00375365 0 0)
(0.0138179 0.000504141 0 0.00344617 0 0)
(0.0133871 0.000739936 0 0.00338129 0 0)
(0.013221 0.00103127 0 0.00344501 0 0)
(0.0133261 0.0014045 0 0.00358078 0 0)
(0.0137332 0.00187303 0 0.0037733 0 0)
(0.0144598 0.00244202 0 0.00402774 0 0)
(0.0155023 0.00311722 0 0.00434946 0 0)
(0.0168642 0.00391269 0 0.00473852 0 0)
(0.0185687 0.00483996 0 0.00518841 0 0)
(0.020662 0.00591346 0 0.0056975 0 0)
(0.0231588 0.00713046 0 0.00624436 0 0)
(0.0261109 0.00849129 0 0.00685574 0 0)
(0.02953 0.0099891 0 0.0075056 0 0)
(0.0333743 0.0116143 0 0.00818433 0 0)
(0.0233931 0.000126034 0 0.00735218 0 0)
(0.0164576 0.000212617 0 0.00535721 0 0)
(0.0147513 0.000203415 0 0.00393525 0 0)
(0.0138703 0.000277632 0 0.00326088 0 0)
(0.0132553 0.000401877 0 0.00298737 0 0)
(0.0128487 0.00056887 0 0.00292411 0 0)
(0.0126485 0.000767335 0 0.00295752 0 0)
(0.0126778 0.00100729 0 0.0030323 0 0)
(0.0129738 0.00131545 0 0.00313637 0 0)
(0.0135648 0.0017171 0 0.00327846 0 0)
(0.0144597 0.00222674 0 0.00346661 0 0)
(0.0156689 0.00285159 0 0.00370129 0 0)
(0.0172179 0.00359127 0 0.00397784 0 0)
(0.0191557 0.00444796 0 0.00429475 0 0)
(0.0214921 0.00541334 0 0.00463579 0 0)
(0.0242826 0.00648955 0 0.00502318 0 0)
(0.0275311 0.00767229 0 0.00543813 0 0)
(0.031195 0.00895536 0 0.00586369 0 0)
(0.0243211 0.000246607 0 0.00677569 0 0)
(0.0170834 0.000121576 0 0.00453112 0 0)
(0.0150299 0.00011708 0 0.00321108 0 0)
(0.0139494 0.000188686 0 0.00264506 0 0)
(0.0132746 0.000283843 0 0.00240304 0 0)
(0.0129263 0.000415915 0 0.00231123 0 0)
(0.0128593 0.000583036 0 0.00228193 0 0)
(0.013034 0.000786551 0 0.00228114 0 0)
(0.0134542 0.00104109 0 0.00230503 0 0)
(0.0141538 0.0013631 0 0.00236022 0 0)
(0.0151632 0.00176268 0 0.00244969 0 0)
(0.0165038 0.00224632 0 0.00257082 0 0)
(0.018192 0.002817 0 0.00271952 0 0)
(0.0202581 0.00347981 0 0.0028948 0 0)
(0.0226984 0.00423289 0 0.00308727 0 0)
(0.0255571 0.00507542 0 0.00331328 0 0)
(0.0288549 0.00600687 0 0.00355964 0 0)
(0.0325351 0.00701806 0 0.00381384 0 0)
(0.0239489 -0.000299872 0 0.00594806 0 0)
(0.0168291 -0.000301238 0 0.00377393 0 0)
(0.0151999 -0.000177009 0 0.00271892 0 0)
(0.0144168 -2.45964e-05 0 0.00226881 0 0)
(0.0138574 9.74565e-05 0 0.00206145 0 0)
(0.0135333 0.000214465 0 0.00196585 0 0)
(0.0134961 0.000346468 0 0.0019116 0 0)
(0.0137529 0.000508499 0 0.00187197 0 0)
(0.0142965 0.00071416 0 0.00184671 0 0)
(0.015125 0.000972452 0 0.00184262 0 0)
(0.0162495 0.00129012 0 0.00186273 0 0)
(0.0177014 0.00167554 0 0.00190518 0 0)
(0.0195217 0.0021336 0 0.00196746 0 0)
(0.0217576 0.00266701 0 0.0020483 0 0)
(0.0244077 0.00326939 0 0.00214012 0 0)
(0.0275075 0.00393491 0 0.00225647 0 0)
(0.0310548 0.00465783 0 0.00238737 0 0)
(0.0349921 0.00543563 0 0.00252094 0 0)
(0.0253544 -0.000219639 0 0.00508307 0 0)
(0.0180126 -0.000183913 0 0.0029542 0 0)
(0.0159457 -0.000142935 0 0.00207358 0 0)
(0.0148105 -3.90902e-05 0 0.00171363 0 0)
(0.0140033 6.55067e-05 0 0.00153966 0 0)
(0.0134768 0.000133838 0 0.0014411 0 0)
(0.0132739 0.000188321 0 0.00136908 0 0)
(0.0133962 0.000268294 0 0.00131078 0 0)
(0.0138146 0.00039482 0 0.00126778 0 0)
(0.0145067 0.000568761 0 0.0012422 0 0)
(0.0154777 0.000785583 0 0.00123307 0 0)
(0.0167656 0.00104593 0 0.00123818 0 0)
(0.0184247 0.00135375 0 0.00125689 0 0)
(0.0205066 0.00171373 0 0.00128978 0 0)
(0.0230112 0.00212562 0 0.00133342 0 0)
(0.0259701 0.00258746 0 0.00139638 0 0)
(0.0293792 0.00309637 0 0.00147236 0 0)
(0.0331602 0.0036538 0 0.0015531 0 0)
(0.0233698 -3.30731e-05 0 0.00406177 0 0)
(0.017319 -0.00029419 0 0.00229463 0 0)
(0.0155798 -0.00036502 0 0.00172037 0 0)
(0.0144139 -0.000333765 0 0.00146191 0 0)
(0.013685 -0.000321479 0 0.00131232 0 0)
(0.0133777 -0.000337023 0 0.00120842 0 0)
(0.013351 -0.000346522 0 0.00112393 0 0)
(0.0135108 -0.000325225 0 0.00105287 0 0)
(0.0138773 -0.00026739 0 0.000994736 0 0)
(0.0145318 -0.000177005 0 0.000948227 0 0)
(0.0155538 -5.54324e-05 0 0.000911324 0 0)
(0.0170003 0.000103099 0 0.000882425 0 0)
(0.0189063 0.000307097 0 0.000861529 0 0)
(0.02131 0.000562219 0 0.000848249 0 0)
(0.0242128 0.000869559 0 0.000840785 0 0)
(0.0276854 0.00122432 0 0.000845146 0 0)
(0.0317617 0.0016268 0 0.000855796 0 0)
(0.0364066 0.00206686 0 0.000867068 0 0)
(0.0244482 0.000198641 0 0.00398048 0 0)
(0.017378 0.000257085 0 0.00224712 0 0)
(0.0156193 0.000192595 0 0.00167526 0 0)
(0.0143993 0.00017895 0 0.00137319 0 0)
(0.013372 0.00015644 0 0.00117884 0 0)
(0.0127546 0.000136505 0 0.00103958 0 0)
(0.0126729 0.00013612 0 0.000933393 0 0)
(0.0130999 0.000152103 0 0.000850078 0 0)
(0.0139762 0.00017596 0 0.000783669 0 0)
(0.0152882 0.000206728 0 0.000729876 0 0)
(0.017088 0.000252048 0 0.000685571 0 0)
(0.0194904 0.00032129 0 0.000648587 0 0)
(0.0226336 0.000419996 0 0.000617636 0 0)
(0.0266641 0.000547251 0 0.000590861 0 0)
(0.0316671 0.000701583 0 0.000566346 0 0)
(0.0377955 0.000878453 0 0.000549926 0 0)
(0.0450503 0.00107565 0 0.000534427 0 0)
(0.0534976 0.0012959 0 0.000511444 0 0)
(0.012109 -0.00724772 3.96777e-23 0.0122627 -4.26984e-23 2.606e-38)
(0.0653715 -0.0101006 -8.21151e-23 0.0152015 1.22874e-24 2.56892e-38)
(0.157885 -0.0149449 0 0.0270326 0 0)
(0.275796 -0.0177262 0 0.0459312 0 0)
(0.385591 -0.0213687 0 0.0658675 0 0)
(0.505356 -0.036706 -1.07038e-23 0.0872148 3.44954e-23 2.41961e-38)
(0.657504 -0.0694285 0 0.107171 0 0)
(0.870279 -0.116764 0 0.118388 0 0)
(1.16108 -0.1679 0 0.11859 0 0)
(1.53284 -0.213965 0 0.111392 0 0)
(1.97694 -0.25071 1.62852e-22 0.0998307 6.38394e-23 2.23976e-38)
(2.4728 -0.27048 0 0.0851946 0 0)
(2.99143 -0.268077 0 0.0709214 0 0)
(3.50526 -0.24927 0 0.0590805 0 0)
(3.99224 -0.221421 0 0.0502099 0 0)
(4.43251 -0.186243 2.94503e-22 0.0439373 1.03477e-22 2.06928e-38)
(4.8134 -0.145491 0 0.0401737 0 0)
(5.12814 -0.102154 0 0.039416 0 0)
(5.3747 -0.0608939 0 0.0415166 0 0)
(5.556 -0.0254014 0 0.0453333 0 0)
(5.6818 0.00111971 0 0.0527838 0 0)
(5.77833 0.0139768 0 0.0609863 0 0)
(5.85656 0.0182486 0 0.0696389 0 0)
(5.92544 0.0214503 -4.29241e-22 0.0806164 1.26183e-22 1.8164e-38)
(5.98706 0.0198254 6.27405e-22 0.0905384 -1.24295e-22 1.7864e-38)
(6.051 0.0126396 -8.48885e-22 0.102197 1.20721e-22 1.75673e-38)
(6.14282 0.0015192 -1.08758e-21 0.121496 1.08753e-22 1.72739e-38)
(6.26631 -0.0252873 0 0.132001 0 0)
(6.44139 -0.0530397 0 0.135563 0 0)
(6.67267 -0.0957391 1.88025e-21 0.134619 -8.7091e-23 1.64133e-38)
(6.96449 -0.145471 2.17056e-21 0.132257 -1.09668e-22 1.61328e-38)
(7.32723 -0.19102 0 0.127682 0 0)
(7.752 -0.226528 0 0.12584 0 0)
(8.22547 -0.25333 3.0713e-21 0.122714 -8.17926e-23 1.53112e-38)
(8.73446 -0.276213 0 0.128355 0 0)
(9.26149 -0.285766 0 0.130061 0 0)
(9.80872 -0.310606 -4.07802e-21 0.138842 1.19272e-22 1.45191e-38)
(10.3814 -0.336632 0 0.144605 0 0)
(10.987 -0.362619 -4.80887e-21 0.150979 1.29562e-22 1.40079e-38)
(11.6112 -0.375355 -1.03628e-20 0.149165 2.85905e-22 5.50292e-38)
(12.2517 -0.380648 0 0.146228 0 0)
(12.9113 -0.387557 0 0.138686 0 0)
(13.602 -0.408366 0 0.126998 0 0)
(14.3295 -0.422789 0 0.124252 0 0)
(15.068 -0.415257 0 0.122144 0 0)
(15.831 -0.412406 -1.50227e-20 0.128461 4.11578e-22 4.92919e-38)
(16.5523 -0.419118 -1.57231e-20 0.131731 4.00713e-22 4.83821e-38)
(17.2724 -0.418135 -1.63449e-20 0.13118 3.80309e-22 4.74856e-38)
(17.9274 -0.399083 0 0.129758 0 0)
(18.4896 -0.360114 1.74382e-20 0.128439 -4.20793e-22 4.57308e-38)
(18.9907 -0.356371 0 0.123442 0 0)
(19.5127 -0.347607 -1.82932e-20 0.108429 4.05146e-22 4.40268e-38)
(20.0056 -0.340722 -1.86572e-20 0.110999 3.87991e-22 4.31937e-38)
(20.4486 -0.307328 0 0.111039 0 0)
(20.7439 -0.297705 0 0.120868 0 0)
(21.0002 -0.267302 0 0.128102 0 0)
(21.2311 -0.292515 -1.96769e-20 0.135902 3.04434e-22 3.99835e-38)
(21.4932 -0.316827 0 0.125461 0 0)
(21.8802 -0.338207 0 0.130988 0 0)
(22.269 -0.365868 0 0.13867 0 0)
(22.7181 -0.367535 0 0.1378 0 0)
(23.1033 -0.320432 0 0.147187 0 0)
(23.4248 -0.328601 0 0.154162 0 0)
(23.8437 -0.364177 0 0.151136 0 0)
(24.4125 -0.390662 0 0.146919 0 0)
(25.0236 -0.397247 2.21678e-20 0.144555 -3.84724e-22 3.34507e-38)
(25.7221 -0.409095 0 0.135575 0 0)
(26.465 -0.407276 0 0.123566 0 0)
(27.2096 -0.399531 -2.34844e-20 0.115947 4.28178e-22 3.14745e-38)
(27.8733 -0.370813 -2.39579e-20 0.105 3.94624e-22 3.08376e-38)
(28.4621 -0.346028 0 0.0958334 0 0)
(28.9756 -0.283619 2.47555e-20 0.0898339 -3.33191e-22 2.95952e-38)
(29.3008 -0.228405 -2.49475e-20 0.101569 2.67605e-22 2.89891e-38)
(29.5451 -0.193299 0 0.104254 0 0)
(29.7025 -0.171684 2.49684e-20 0.106787 -1.64604e-22 2.78067e-38)
(29.7322 -0.162546 0 0.106233 0 0)
(29.7119 -0.157781 0 0.0975053 0 0)
(29.5576 -0.102301 -2.46448e-20 0.101626 1.23296e-22 2.61073e-38)
(29.21 -0.0603408 0 0.0990276 0 0)
(28.7106 -0.0699957 2.42125e-20 0.0903355 -8.63832e-23 2.50224e-38)
(28.2853 -0.0639804 0 0.0812062 0 0)
(27.7595 -0.0995279 -2.39406e-20 0.0788785 1.81319e-22 2.39746e-38)
(27.4524 -0.10742 -2.37835e-20 0.0750725 1.97334e-22 2.34642e-38)
(27.0239 -0.116348 -2.364e-20 0.0826681 2.09127e-22 2.29625e-38)
(27.0111 -0.190042 -4.70804e-20 0.0812123 4.50042e-22 8.98777e-38)
(26.9338 -0.182365 4.66986e-20 0.0794946 -3.9977e-22 8.79396e-38)
(26.9127 -0.127852 0 0.0735685 0 0)
(26.6649 -0.0261428 0 0.0828764 0 0)
(26.1865 -0.0288692 0 0.0965939 0 0)
(25.957 -0.0783132 4.37756e-20 0.0983167 -1.54156e-22 8.05163e-38)
(25.7839 -0.055071 4.3042e-20 0.0996281 -1.21061e-22 7.87405e-38)
(25.6068 -0.0755086 -4.24954e-20 0.108336 2.02252e-22 7.69958e-38)
(25.7186 -0.108751 0 0.10924 0 0)
(25.8642 -0.154347 4.21574e-20 0.117595 -2.78632e-22 7.35979e-38)
(26.3913 -0.257927 4.21052e-20 0.11621 -3.33131e-22 7.19452e-38)
(27.302 -0.313668 4.23647e-20 0.103479 -4.08317e-22 7.03231e-38)
(28.4017 -0.327449 0 0.0920728 0 0)
(29.4921 -0.293851 0 0.082217 0 0)
(30.4086 -0.24085 0 0.0728889 0 0)
(31.006 -0.148923 4.48269e-20 0.066166 -3.67855e-22 6.41295e-38)
(31.3163 -0.0873782 0 0.0566905 0 0)
(31.3027 0.0148668 0 0.0580502 0 0)
(30.8406 0.0396565 -4.45545e-20 0.073048 2.17683e-22 5.97761e-38)
(30.4028 0.0601748 0 0.0696365 0 0)
(29.8971 0.0343344 0 0.0717873 0 0)
(29.5167 0.0706837 -4.25649e-20 0.0750225 1.34078e-22 5.56561e-38)
(28.7225 0.00883885 0 0.101447 0 0)
(28.6636 -0.0974091 0 0.0940728 0 0)
(28.669 -0.119956 3.99213e-20 0.0983735 -2.42573e-22 5.17581e-38)
(28.9938 -0.16151 3.98397e-20 0.0926339 -3.2815e-22 5.05077e-38)
(29.288 -0.137811 0 0.0855832 0 0)
(29.6965 -0.156267 -4.02209e-20 0.0765756 4.02647e-22 4.80788e-38)
(30.1796 -0.138987 0 0.0599758 0 0)
(30.6331 -0.11188 4.07822e-20 0.0510359 -3.90777e-22 4.57425e-38)
(30.9222 -0.0729813 0 0.0456445 0 0)
(31.0536 -0.0354637 4.03657e-20 0.0406973 -3.35551e-22 4.34942e-38)
(31.0044 0.00567442 3.96733e-20 0.0360664 -2.83532e-22 4.24018e-38)
(30.7578 0.0458511 0 0.032749 0 0)
(30.3075 0.0837463 0 0.0303678 0 0)
(29.6642 0.114295 0 0.0282721 0 0)
(28.8485 0.143322 0 0.0289451 0 0)
(27.959 0.154815 0 0.0271352 0 0)
(26.983 0.187926 0 0.0328065 0 0)
(25.8695 0.18126 0 0.0468389 0 0)
(24.9338 0.152516 2.63035e-20 0.043742 -1.25823e-22 3.43836e-38)
(24.0928 0.12362 -2.478e-20 0.0438433 1.53877e-22 3.3468e-38)
(23.4455 0.0840815 0 0.0416747 0 0)
(22.923 0.0560196 0 0.0383129 0 0)
(22.5346 0.0402864 0 0.0348163 0 0)
(22.1845 0.0404252 0 0.0336114 0 0)
(21.8395 0.0424879 -4.29863e-20 0.0327402 6.01191e-22 1.16663e-37)
(21.4217 0.0477729 0 0.0309976 0 0)
(21.0421 0.0548078 4.26742e-20 0.0305682 -4.24892e-22 1.1026e-37)
(20.725 0.017595 -4.21698e-20 0.0505732 3.72604e-22 1.07153e-37)
(21.0011 -0.0957493 0 0.0657283 0 0)
(21.598 -0.135499 0 0.0552075 0 0)
(22.3669 -0.136896 0 0.0468989 0 0)
(23.1991 -0.153135 4.6435e-20 0.0494435 -7.60837e-22 9.53473e-38)
(24.1367 -0.137994 4.81625e-20 0.0369807 -6.62206e-22 9.25492e-38)
(24.7866 -0.0822892 0 0.0281618 0 0)
(25.2123 -0.035255 4.96798e-20 0.0247418 -4.11002e-22 8.71284e-38)
(25.3219 0.00883438 4.92023e-20 0.0229522 -3.05127e-22 8.45035e-38)
(25.2077 0.0446111 -4.80486e-20 0.0220324 2.48518e-22 8.19339e-38)
(24.8639 0.0729198 0 0.0245511 0 0)
(24.4155 0.079926 0 0.0286337 0 0)
(23.9163 0.0887833 -4.08597e-20 0.0281295 9.07788e-23 7.45454e-38)
(23.2773 0.11197 0 0.0256734 0 0)
(22.4805 0.13679 0 0.0244235 0 0)
(21.5338 0.156224 0 0.0244553 0 0)
(20.4902 0.16697 0 0.0248125 0 0)
(19.3928 0.169799 2.47735e-20 0.0242046 -8.06281e-24 6.32705e-38)
(18.291 0.168743 2.18329e-20 0.0230862 -4.33045e-23 6.11667e-38)
(17.2174 0.162355 0 0.0230011 0 0)
(16.1999 0.151822 1.70592e-20 0.0228565 -1.16875e-22 5.71028e-38)
(15.3085 0.129675 0 0.0265568 0 0)
(14.7197 0.0785601 0 0.0323321 0 0)
(14.5418 0.024683 1.36822e-20 0.033241 -2.59826e-22 5.13558e-38)