/*--------------------------------*- C++ -*----------------------------------*\
  =========                 |
  \\      /  F ield         | OpenFOAM: The Open Source CFD Toolbox
   \\    /   O peration     | Website:  https://openfoam.org
    \\  /    A nd           | Version:  6
     \\/     M anipulation  |
\*---------------------------------------------------------------------------*/
FoamFile
{
    version     2.0;
    format      ascii;
    class       volScalarField;
    location    "0.1";
    object      k_0;
}
// * * * * * * * * * * * * * * * * * * * * * * * * * * * * * * * * * * * * * //

dimensions      [0 2 -2 0 0 0 0];

internalField   nonuniform List<scalar> 
12225
(
5.64822e-05
5.64685e-05
3.48263e-05
2.50169e-05
2.64656e-05
4.70779e-05
0.000156045
0.000411026
0.000547759
0.000577759
0.000560438
0.000452628
0.00035468
0.000325755
0.000325462
0.000338862
0.000344934
0.000324966
2.10247e-05
2.15147e-05
2.09883e-05
2.06143e-05
2.11319e-05
2.45597e-05
3.75829e-05
7.86199e-05
0.000146609
0.000198904
0.000221504
0.000222743
0.0002171
0.000196741
0.000184063
0.000181829
0.000184724
0.000194711
2.00141e-05
1.03937e-05
9.21662e-06
9.74151e-06
1.14291e-05
1.27765e-05
1.48139e-05
1.78742e-05
2.26275e-05
2.9705e-05
3.78917e-05
4.44296e-05
4.764e-05
4.84116e-05
4.85927e-05
4.88713e-05
4.96702e-05
5.26225e-05
2.02601e-05
2.01314e-05
1.94706e-05
1.74652e-05
1.58185e-05
1.45387e-05
1.38301e-05
1.37815e-05
1.48796e-05
1.83867e-05
2.10552e-05
2.25254e-05
2.31266e-05
2.32139e-05
2.30315e-05
2.29678e-05
2.30694e-05
2.36126e-05
2.06497e-05
2.08203e-05
2.07165e-05
2.08679e-05
2.17449e-05
2.21805e-05
2.22361e-05
2.23229e-05
2.24326e-05
2.25826e-05
2.27728e-05
2.29327e-05
2.30731e-05
2.32788e-05
2.37208e-05
2.49019e-05
2.84844e-05
4.09856e-05
2.06989e-05
2.15274e-05
2.18253e-05
2.20369e-05
2.20716e-05
2.19201e-05
2.18257e-05
2.1839e-05
2.19676e-05
2.2522e-05
2.32487e-05
2.36638e-05
2.39485e-05
2.43389e-05
2.50908e-05
2.67944e-05
3.18279e-05
4.74206e-05
2.27965e-05
2.9746e-05
2.98179e-05
2.53806e-05
2.30774e-05
2.26612e-05
2.28465e-05
2.46204e-05
2.70337e-05
2.78325e-05
2.77684e-05
2.66881e-05
2.53298e-05
2.48407e-05
2.4809e-05
2.52506e-05
2.7099e-05
3.16092e-05
2.1515e-05
2.60308e-05
2.72153e-05
2.53462e-05
2.36301e-05
2.41423e-05
2.93922e-05
6.35174e-05
0.000135152
0.000157435
0.000151446
0.000109133
6.24937e-05
3.94373e-05
2.92483e-05
2.51688e-05
2.37724e-05
2.36265e-05
2.57066e-05
2.66596e-05
2.44361e-05
2.23017e-05
2.17341e-05
2.18936e-05
2.36515e-05
3.38074e-05
5.89362e-05
7.20482e-05
7.5176e-05
7.3941e-05
6.16633e-05
4.02798e-05
2.94833e-05
2.47276e-05
2.27793e-05
2.22097e-05
2.27209e-05
2.27012e-05
2.26966e-05
2.26745e-05
2.26976e-05
2.31997e-05
2.70299e-05
4.982e-05
7.68224e-05
8.27631e-05
7.94202e-05
5.88235e-05
3.82756e-05
2.86492e-05
2.42416e-05
2.22834e-05
2.1482e-05
2.12286e-05
2.03498e-05
2.08922e-05
2.14783e-05
2.18143e-05
2.19962e-05
2.23114e-05
2.33222e-05
2.78454e-05
3.65954e-05
3.97784e-05
3.82939e-05
3.06638e-05
2.52932e-05
2.29299e-05
2.18922e-05
2.14694e-05
2.13371e-05
2.13181e-05
2.17089e-05
2.27777e-05
2.22594e-05
2.16792e-05
2.17072e-05
2.1898e-05
2.19398e-05
2.19971e-05
2.19124e-05
2.18104e-05
2.19943e-05
2.25056e-05
2.25193e-05
2.24921e-05
2.24437e-05
2.2288e-05
2.21872e-05
2.19677e-05
2.12697e-05
2.25663e-05
2.2939e-05
2.29672e-05
2.28571e-05
2.23228e-05
2.17834e-05
2.15552e-05
2.15434e-05
2.17691e-05
2.29905e-05
2.90315e-05
3.89122e-05
4.26728e-05
4.31392e-05
4.28985e-05
4.10983e-05
3.59513e-05
2.15752e-05
2.27832e-05
2.36838e-05
2.2974e-05
2.2606e-05
2.40499e-05
2.97415e-05
3.2373e-05
3.22716e-05
3.22107e-05
3.33119e-05
3.92022e-05
4.49145e-05
4.63569e-05
4.59897e-05
4.33022e-05
3.67925e-05
3.22105e-05
2.39338e-05
2.15401e-05
2.1006e-05
2.13548e-05
2.18116e-05
2.25582e-05
2.47348e-05
2.91594e-05
3.14507e-05
3.20108e-05
3.19508e-05
3.13752e-05
3.09427e-05
3.03041e-05
2.91062e-05
2.78444e-05
2.70359e-05
2.63633e-05
2.66987e-05
2.40722e-05
2.16446e-05
2.0908e-05
2.10682e-05
2.13149e-05
2.15606e-05
2.21908e-05
2.29413e-05
2.33122e-05
2.33281e-05
2.29104e-05
2.20286e-05
2.15676e-05
2.1398e-05
2.13776e-05
2.14459e-05
2.18785e-05
4.32385e-05
4.56801e-05
3.30568e-05
2.32307e-05
2.13065e-05
2.13018e-05
2.18062e-05
2.20158e-05
2.20383e-05
2.20061e-05
2.17745e-05
2.14295e-05
2.12786e-05
2.12537e-05
2.12861e-05
2.14847e-05
2.21586e-05
2.25732e-05
2.35972e-05
2.47209e-05
2.34241e-05
2.18302e-05
2.10763e-05
2.08783e-05
2.09052e-05
2.09997e-05
2.10271e-05
2.10363e-05
2.10541e-05
2.11236e-05
2.14054e-05
2.17376e-05
2.19721e-05
2.22506e-05
2.27625e-05
2.40053e-05
2.06028e-05
2.44728e-05
2.78124e-05
2.97467e-05
2.89357e-05
2.6077e-05
2.5283e-05
2.48716e-05
2.41656e-05
2.35708e-05
2.2949e-05
2.2369e-05
2.19934e-05
2.18499e-05
2.18403e-05
2.19278e-05
2.23898e-05
2.4398e-05
2.02247e-05
2.13474e-05
2.17251e-05
2.16829e-05
2.14935e-05
2.14854e-05
2.17646e-05
2.3427e-05
2.99742e-05
3.49972e-05
3.56329e-05
3.48003e-05
3.11683e-05
2.74768e-05
2.55121e-05
2.47747e-05
2.46875e-05
2.49576e-05
2.01807e-05
2.104e-05
2.1325e-05
2.1344e-05
2.13462e-05
2.1434e-05
2.20597e-05
2.44489e-05
2.59679e-05
2.60937e-05
2.56811e-05
2.40616e-05
2.27312e-05
2.21401e-05
2.19986e-05
2.20355e-05
2.23674e-05
2.37815e-05
2.01968e-05
2.07699e-05
2.08429e-05
2.07109e-05
2.06219e-05
2.06529e-05
2.08479e-05
2.14383e-05
2.21528e-05
2.27862e-05
2.30066e-05
2.27729e-05
2.25105e-05
2.24817e-05
2.25956e-05
2.3325e-05
2.53334e-05
2.67137e-05
2.01012e-05
2.00885e-05
2.01045e-05
2.02496e-05
2.09963e-05
2.32028e-05
2.45419e-05
2.48518e-05
2.47425e-05
2.39183e-05
2.26723e-05
2.18382e-05
2.12922e-05
2.09445e-05
2.07486e-05
2.06679e-05
2.06538e-05
2.06754e-05
2.03974e-05
2.07664e-05
2.07196e-05
2.03229e-05
2.03571e-05
2.05677e-05
2.10529e-05
2.27424e-05
2.58985e-05
2.64431e-05
2.61663e-05
2.58313e-05
2.55872e-05
2.50527e-05
2.40751e-05
2.3284e-05
2.2834e-05
2.26841e-05
2.07434e-05
2.29262e-05
2.20659e-05
2.09225e-05
2.05301e-05
2.04506e-05
2.04994e-05
2.10027e-05
2.33115e-05
2.53633e-05
2.60479e-05
2.69903e-05
2.81591e-05
2.8704e-05
2.87115e-05
2.76949e-05
2.46411e-05
2.29468e-05
2.02682e-05
2.14417e-05
2.17146e-05
2.15821e-05
2.10851e-05
2.09777e-05
2.11992e-05
2.23018e-05
2.31942e-05
2.33698e-05
2.33744e-05
2.34455e-05
2.39388e-05
2.45841e-05
2.48864e-05
2.49293e-05
2.44459e-05
2.27048e-05
2.05342e-05
2.0282e-05
2.03098e-05
2.04102e-05
2.03894e-05
2.0075e-05
1.94178e-05
1.9012e-05
1.85888e-05
1.82664e-05
1.82346e-05
1.82846e-05
1.82193e-05
1.76409e-05
1.71059e-05
1.71637e-05
1.75766e-05
1.76864e-05
2.00026e-05
1.62496e-05
1.3128e-05
1.34631e-05
1.39129e-05
1.34913e-05
1.11306e-05
9.63046e-06
9.53441e-06
1.02172e-05
1.37913e-05
2.4301e-05
3.31214e-05
3.92867e-05
4.4279e-05
4.83566e-05
5.0935e-05
5.14296e-05
2.00863e-05
2.00521e-05
1.99805e-05
1.99029e-05
1.98889e-05
1.99266e-05
2.02535e-05
2.18016e-05
2.7913e-05
4.98103e-05
0.000127048
0.000314397
0.000460223
0.000543305
0.000576548
0.000580939
0.000574127
0.000546385
3.24154e-05
2.84888e-05
2.15684e-05
1.94539e-05
1.90555e-05
1.93143e-05
2.16258e-05
3.31548e-05
8.12847e-05
0.00026751
0.000946569
0.0017075
0.00210465
0.00223279
0.00223578
0.00213964
0.00169202
0.00112716
0.0882253
0.108749
0.0998634
0.0777996
0.0621918
0.053954
0.0503512
0.0493097
0.0498742
0.0516415
0.0525281
0.0527135
0.0528699
0.0533872
0.0547315
0.057142
0.0604727
0.0632474
0.0668391
0.0728166
0.0781676
0.0837616
0.0887185
0.0924441
0.0959091
0.0996611
0.112405
0.151964
0.19248
0.201356
0.198788
0.19261
0.184807
0.166895
0.143262
0.12195
0.110273
0.108925
0.110408
0.115509
0.125778
0.136101
0.140827
0.140202
0.130785
0.119065
0.112776
0.10208
0.0913818
0.0858574
0.0845792
0.0846029
0.0851573
0.0878477
0.0956408
0.108572
0.125735
0.144689
0.160144
0.182429
0.204189
0.300312
0.41259
0.249148
0.058957
0.0316981
0.0271183
0.0268701
0.0266028
0.0262124
0.0263787
0.0264626
0.0263045
0.0256653
0.0246391
0.0233205
0.0216517
0.0194215
0.0167468
0.0141175
0.0126188
0.0121203
0.0119903
0.0119447
0.0119344
0.0119481
0.0120374
0.0121683
0.0123105
0.0125052
0.0128159
0.0132749
0.0137862
0.0141853
0.0143971
0.0146938
0.0152635
0.015883
0.0169874
0.0193295
0.0217636
0.0228281
0.0216509
0.0272411
0.0482374
0.0450695
0.0342652
0.422413
0.580793
0.218254
0.12969
0.102323
0.0843909
0.0729749
0.067674
0.0654613
0.0650674
0.0651753
0.0651635
0.0649944
0.0646462
0.0642174
0.0637016
0.063165
0.0626185
0.0620214
0.061364
0.0607111
0.0600016
0.0593357
0.0587309
0.0581293
0.0576776
0.0575108
0.0573511
0.057231
0.0570678
0.0569052
0.0564909
0.0559752
0.0563431
0.0568564
0.0569422
0.0566427
0.0555586
0.0542013
0.0527075
0.0514218
0.0505254
0.0499266
0.0493959
0.0488006
0.0481853
0.0473522
0.0463899
0.0455659
0.0444996
0.0423543
0.0372484
0.0273437
0.0169676
0.0104008
0.00841443
0.00845716
0.0097776
0.0236067
0.0623159
0.0291424
0.00688757
0.00882992
0.00728474
0.0076317
0.00791507
0.00755561
0.00733101
0.00714794
0.00705918
0.00680291
0.00657344
0.00556751
0.0785154
0.0802459
0.0777663
0.0603379
0.0424634
0.034718
0.0261813
0.0221212
0.0208256
0.0206568
0.020673
0.0207956
0.0213838
0.0222878
0.023183
0.0243517
0.0250675
0.0262027
0.0277347
0.0287297
0.0309841
0.0337484
0.0402086
0.0454393
0.0550016
0.066461
0.0748709
0.0831371
0.0987431
0.109073
0.108796
0.101443
0.0804559
0.0666301
0.0582505
0.0564082
0.0575686
0.0657195
0.0802833
0.0883845
0.0908365
0.090085
0.0864612
0.0783921
0.0639741
0.052273
0.0479116
0.0478747
0.0496145
0.0564059
0.0660223
0.0745233
0.0836321
0.0903006
0.0955539
0.103221
0.114232
0.132762
0.201258
0.335517
0.338422
0.294781
0.169018
0.068503
0.0267999
0.0176022
0.0145858
0.0129888
0.0116079
0.0110194
0.0103262
0.00964669
0.00903255
0.00842715
0.00809867
0.00770519
0.00731084
0.00692103
0.00655351
0.00625706
0.00599801
0.00572737
0.00546431
0.00525944
0.00510088
0.00504053
0.00502405
0.00506008
0.00523649
0.00551914
0.00588715
0.00643292
0.00723499
0.00847207
0.010388
0.013199
0.0175851
0.024885
0.0366088
0.0515181
0.0603574
0.0600616
0.0536074
0.0426834
0.0373304
0.0812657
0.335322
0.40059
0.318501
0.111124
0.0898706
0.0851463
0.0834407
0.0827341
0.0818164
0.0804125
0.0796173
0.0779879
0.0761183
0.0745531
0.0729554
0.0711118
0.0692536
0.0676228
0.0659428
0.0644826
0.0633197
0.0620349
0.0603162
0.0583527
0.0559931
0.0532665
0.0511501
0.0499612
0.0497419
0.0499093
0.0510048
0.0530395
0.0550502
0.0563903
0.0574436
0.0582028
0.058741
0.0591026
0.0592586
0.0592021
0.0586656
0.0576839
0.0566534
0.0558527
0.0548444
0.0540279
0.0539596
0.0541013
0.0544493
0.0551956
0.055966
0.0565811
0.0567764
0.0564728
0.0550492
0.0507328
0.0390033
0.0248954
0.0153811
0.0156548
0.0338847
0.0337965
0.0278954
0.0225893
0.0118697
0.0113243
0.0129186
0.012154
0.0114136
0.010965
0.0104885
0.0099093
0.00975359
0.00927669
0.0584626
0.0480237
0.0649847
0.0622726
0.0543764
0.0403608
0.0268986
0.019116
0.0164367
0.0159372
0.0160652
0.0167713
0.0186027
0.0204178
0.0216974
0.0224889
0.0226747
0.0226794
0.0225825
0.0226686
0.0233
0.0242435
0.0261647
0.0279528
0.0300991
0.035392
0.0392435
0.043
0.051427
0.0573771
0.0679604
0.0897058
0.0985582
0.0952108
0.0765115
0.0603461
0.0602839
0.0750112
0.0825258
0.0776056
0.0590685
0.0409254
0.0288201
0.025807
0.0263353
0.0296507
0.0390242
0.0582422
0.0718795
0.0818342
0.0843793
0.0857162
0.0893326
0.0992352
0.106363
0.111589
0.122521
0.164204
0.29891
0.301591
0.182076
0.102183
0.0366538
0.0160194
0.00886897
0.00643466
0.00528148
0.00430238
0.00381617
0.00355362
0.00321864
0.00292227
0.00261822
0.0024482
0.00234379
0.00221747
0.00209686
0.00199495
0.00190684
0.00186297
0.00184498
0.0018476
0.00192542
0.00201456
0.00213066
0.00227297
0.00244996
0.002677
0.0029613
0.00332285
0.00381571
0.00453317
0.00564798
0.00750198
0.0108523
0.017106
0.0288792
0.049846
0.0835674
0.108624
0.113355
0.106973
0.086116
0.0652046
0.0770483
0.23369
0.309505
0.290606
0.126286
0.0909709
0.0880362
0.0871855
0.0866683
0.0858077
0.0848619
0.0844663
0.0837487
0.0817972
0.0800211
0.0780792
0.0759716
0.0733276
0.0707411
0.0685651
0.0663084
0.0644334
0.0632818
0.0625256
0.0611594
0.0590617
0.0556558
0.0509129
0.0459886
0.040097
0.0356195
0.0324408
0.0297941
0.0278873
0.0266589
0.0260438
0.0259371
0.0262296
0.0272654
0.0286979
0.0302552
0.0314349
0.0317989
0.0316391
0.0317017
0.0322562
0.033816
0.0375684
0.0412449
0.04355
0.0452929
0.0470484
0.0488857
0.0504456
0.0512704
0.0514118
0.0508268
0.0473626
0.0360331
0.0238855
0.0140042
0.00918366
0.0106995
0.0197382
0.0233732
0.0221159
0.0184819
0.0167092
0.0168663
0.0178932
0.0182677
0.0184892
0.0176651
0.0149471
0.012998
0.0114902
0.0484886
0.0320297
0.0484429
0.0550718
0.051787
0.0406977
0.0251219
0.017482
0.0150098
0.0148376
0.0152619
0.0164207
0.0190986
0.0218647
0.0237905
0.0253677
0.0262755
0.026964
0.0276535
0.0278726
0.0285452
0.029355
0.0311052
0.033498
0.0353008
0.0378841
0.0407885
0.0429545
0.0432631
0.0429547
0.0439881
0.0506406
0.0732411
0.0878511
0.0879591
0.0831132
0.0840733
0.0836114
0.0696524
0.046504
0.029154
0.020842
0.0202979
0.0232871
0.0361315
0.0545794
0.066575
0.0768629
0.0867024
0.095187
0.0980686
0.10172
0.105972
0.114514
0.118859
0.122801
0.133172
0.2321
0.272961
0.149476
0.0609252
0.0273962
0.011069
0.00557154
0.0036139
0.00277631
0.00226434
0.00195052
0.0017714
0.00167062
0.00154923
0.00146869
0.00141833
0.0014017
0.00139748
0.00140753
0.00144615
0.00149953
0.00158397
0.00171122
0.0018839
0.00210644
0.00238805
0.00268019
0.00296496
0.00322613
0.00345881
0.00367488
0.00387186
0.0040536
0.00431611
0.00478529
0.0056951
0.00742573
0.0109317
0.0182144
0.0327909
0.0608434
0.106847
0.137013
0.141407
0.140246
0.142869
0.157738
0.200903
0.247147
0.250866
0.138147
0.0986611
0.093413
0.0947924
0.0986155
0.0998853
0.10062
0.10106
0.10121
0.100937
0.100098
0.0986401
0.0973781
0.095182
0.091778
0.0877091
0.0831874
0.0785032
0.0747992
0.07219
0.0711013
0.0704232
0.0691304
0.064275
0.0557529
0.0468756
0.0392832
0.0318295
0.0267706
0.0233036
0.0200308
0.0171562
0.0147055
0.0127493
0.0115864
0.0112254
0.0112228
0.0113378
0.011579
0.01211
0.0134881
0.0168817
0.022151
0.0284285
0.0357496
0.0435323
0.0493702
0.0526755
0.0550294
0.055147
0.0543605
0.0529711
0.0530062
0.0537911
0.0533922
0.049493
0.0355307
0.0202801
0.0114812
0.00815467
0.00872093
0.0110269
0.0164794
0.0167348
0.0163313
0.0163971
0.0169443
0.0182498
0.021563
0.0231045
0.0228644
0.0198196
0.0153456
0.048709
0.0309624
0.0516242
0.055646
0.0465963
0.0255107
0.0172459
0.0148484
0.0144041
0.0145389
0.0153699
0.017583
0.0202465
0.0226954
0.0244694
0.0262761
0.0274518
0.0279298
0.0289297
0.0296103
0.0299306
0.0296078
0.0283908
0.028219
0.0292744
0.0322146
0.0390389
0.0448201
0.0471179
0.0470957
0.045731
0.0456584
0.0527734
0.0763642
0.0858772
0.0861998
0.0865905
0.0794386
0.0560434
0.0328213
0.0199148
0.0179908
0.0208805
0.0363469
0.0534166
0.0606696
0.0694877
0.0765611
0.0912102
0.107691
0.123657
0.14761
0.148797
0.145615
0.14205
0.137811
0.162858
0.232879
0.193519
0.0604804
0.0237058
0.010591
0.00498368
0.00279069
0.00190181
0.00152411
0.00135282
0.00127797
0.00125343
0.00125381
0.00131124
0.00135972
0.00140869
0.00147749
0.0016167
0.00183428
0.00217335
0.00266178
0.00333664
0.00419819
0.0051918
0.00623911
0.00724981
0.00822338
0.00900982
0.00953036
0.00974083
0.00978592
0.00963547
0.00911804
0.00843084
0.00776444
0.00749481
0.00778157
0.010199
0.0157197
0.0309718
0.0629396
0.113883
0.158682
0.171036
0.171599
0.176544
0.203054
0.216945
0.222008
0.144247
0.107354
0.0998668
0.10016
0.105351
0.106749
0.107237
0.10734
0.106795
0.106326
0.106211
0.106069
0.10579
0.10555
0.105283
0.104742
0.103756
0.101883
0.0981533
0.0909874
0.0834439
0.0793585
0.0771486
0.0752365
0.0712938
0.0635774
0.0515213
0.0406083
0.0311488
0.0232796
0.0179158
0.0147842
0.0123804
0.0102411
0.00845777
0.00747556
0.007202
0.00721941
0.00741154
0.00798205
0.00938774
0.0123413
0.0198473
0.0347067
0.047338
0.0578035
0.0701534
0.084545
0.0954545
0.0990265
0.0990393
0.0961023
0.0811177
0.0631358
0.0574633
0.057931
0.0582459
0.0560205
0.0469799
0.0261824
0.0135451
0.00910778
0.00785815
0.00829591
0.00946164
0.0114998
0.0135756
0.014647
0.0163822
0.0188911
0.0220189
0.0243446
0.0246542
0.0222804
0.050551
0.0433066
0.0608105
0.0467776
0.0256908
0.0184382
0.0157594
0.0151163
0.0152376
0.0158085
0.017637
0.0203755
0.0222976
0.0243497
0.0261069
0.0277962
0.0295235
0.0302862
0.0305157
0.0311016
0.0313974
0.0315724
0.0321134
0.0319904
0.0319864
0.0327065
0.0358362
0.0443354
0.0506357
0.0520845
0.0511079
0.0504347
0.0548281
0.0744019
0.0842735
0.085686
0.0837942
0.0724132
0.046394
0.0238704
0.0168999
0.0181602
0.0314307
0.0458789
0.0508762
0.0569364
0.0674437
0.089397
0.135134
0.196817
0.252471
0.26197
0.253478
0.230367
0.195756
0.166748
0.195375
0.215746
0.0920593
0.0270274
0.01086
0.00534721
0.00290388
0.00176713
0.00130061
0.00116179
0.00113065
0.00113078
0.00118551
0.00126816
0.0013865
0.00155631
0.00181059
0.002244
0.00292967
0.00397261
0.00553749
0.0077995
0.0105358
0.0132506
0.015803
0.0180467
0.0199377
0.0214841
0.0227385
0.0238257
0.0244503
0.0247129
0.024671
0.0237333
0.021975
0.0190217
0.0153249
0.0128522
0.0120253
0.013556
0.0225934
0.0494953
0.107678
0.167065
0.189779
0.198503
0.201682
0.203782
0.203289
0.160599
0.116188
0.104239
0.102761
0.108221
0.110254
0.110945
0.111119
0.110846
0.10922
0.107269
0.106392
0.105928
0.105717
0.105673
0.105761
0.105882
0.106039
0.106102
0.105531
0.10347
0.0973438
0.0862568
0.0807571
0.077946
0.0742628
0.0668159
0.0557546
0.0433
0.032073
0.0226786
0.0157068
0.0108679
0.0077023
0.00597958
0.00531866
0.00508755
0.00507689
0.00514263
0.0054703
0.00670488
0.00989464
0.0187107
0.0410949
0.0598691
0.0716096
0.0784897
0.0849814
0.0982189
0.127813
0.157784
0.174719
0.177484
0.171085
0.131514
0.0823288
0.0663959
0.065077
0.0650136
0.0633576
0.0568049
0.0359459
0.0165233
0.00974151
0.00739111
0.00622364
0.00629664
0.00687612
0.00813571
0.0111298
0.0145801
0.0185594
0.0226966
0.0258861
0.0258724
0.043987
0.0526088
0.0405665
0.0259385
0.0204529
0.0181884
0.0185136
0.0192728
0.0205546
0.0225578
0.0253
0.0277579
0.0294398
0.0311886
0.0328709
0.0339701
0.035536
0.0368341
0.0369819
0.0367783
0.0363058
0.0361446
0.0361965
0.0364158
0.0369691
0.0382457
0.0418474
0.0496684
0.0554012
0.0569668
0.0562388
0.0554305
0.0600328
0.0777943
0.0848639
0.0849384
0.0801407
0.0636722
0.0322995
0.0169284
0.0158409
0.0232872
0.0397313
0.0445954
0.0487284
0.0596712
0.0896671
0.166951
0.25258
0.301749
0.329327
0.329185
0.313969
0.262979
0.207272
0.186892
0.194432
0.169172
0.0435017
0.0129041
0.00558845
0.00311273
0.00195003
0.00133546
0.00113429
0.00110194
0.00110635
0.00115317
0.00126476
0.00146084
0.00179047
0.00233083
0.00322513
0.00476444
0.00723182
0.00994174
0.012851
0.0157397
0.0181156
0.0202039
0.0219509
0.0235004
0.0248474
0.0259864
0.0272314
0.0284621
0.0295735
0.0305601
0.031644
0.0325834
0.0333096
0.033813
0.0325375
0.0284658
0.0212094
0.0179831
0.0183141
0.0312883
0.0725486
0.15098
0.187855
0.199374
0.201863
0.197319
0.169745
0.127363
0.110177
0.106083
0.108207
0.112614
0.113922
0.114596
0.115074
0.115198
0.11463
0.112482
0.109454
0.106319
0.104802
0.103893
0.103557
0.1035
0.104073
0.105101
0.105723
0.10551
0.102809
0.0953944
0.0846292
0.0803428
0.0757282
0.0679635
0.0570922
0.0440448
0.0323303
0.0223648
0.0148432
0.00957859
0.00609038
0.00396801
0.00296113
0.00267543
0.00267086
0.0028624
0.00376771
0.0063466
0.0139859
0.0351773
0.0535529
0.0658434
0.0741798
0.0815119
0.0904857
0.10618
0.140471
0.183837
0.225365
0.251174
0.254602
0.24219
0.168861
0.0962983
0.0751572
0.0726104
0.0722427
0.0707407
0.0641488
0.0398768
0.0184356
0.00994165
0.00691045
0.00521211
0.00449169
0.00456639
0.00511679
0.00658674
0.0105306
0.0179265
0.0241801
0.0270894
0.0318947
0.0398512
0.0323115
0.0252688
0.0238912
0.0250137
0.0282206
0.0315773
0.0360709
0.0391343
0.0415691
0.0434286
0.0446321
0.0453817
0.0463867
0.0468158
0.0475233
0.0477928
0.0476016
0.0470505
0.0459977
0.0441422
0.0420425
0.0414726
0.0416026
0.0422754
0.0452528
0.0540217
0.0597839
0.0607244
0.0591151
0.0586503
0.0687023
0.0827318
0.0857966
0.0836432
0.0737253
0.0431399
0.0186868
0.0131867
0.0160364
0.030035
0.0388944
0.0402153
0.0476553
0.0787401
0.170315
0.264288
0.316516
0.346621
0.356288
0.347853
0.315556
0.2581
0.205267
0.187069
0.179575
0.0841246
0.0204573
0.00658898
0.00326554
0.0021079
0.00153541
0.00121659
0.00113084
0.00111916
0.00117121
0.00131702
0.00159554
0.00207289
0.00287805
0.00425069
0.00666857
0.00936927
0.0113322
0.0136606
0.0159821
0.0177297
0.0193456
0.0207125
0.022118
0.0232278
0.0240824
0.0247808
0.0254869
0.026268
0.027132
0.0279844
0.0293108
0.0309272
0.0329082
0.0356478
0.0372229
0.0378761
0.0375771
0.0318882
0.0241353
0.0227476
0.0393149
0.097112
0.161356
0.183413
0.189508
0.179926
0.139439
0.115276
0.107462
0.106198
0.109967
0.114882
0.116366
0.11778
0.118743
0.11913
0.119278
0.119018
0.117076
0.113139
0.107171
0.103392
0.101813
0.101275
0.101133
0.101621
0.103094
0.103974
0.103516
0.0987407
0.088323
0.0818538
0.0762865
0.0680865
0.0571816
0.0434355
0.03054
0.0203033
0.0129004
0.00808411
0.00501371
0.0030513
0.00194233
0.00161629
0.00164026
0.00199731
0.0033969
0.00810074
0.0242886
0.0427867
0.0562328
0.0633986
0.0699361
0.0799162
0.101091
0.139093
0.189133
0.229143
0.257297
0.282163
0.297578
0.297726
0.276134
0.171794
0.0998151
0.0821169
0.0795447
0.0784815
0.0760413
0.0671056
0.039346
0.0186072
0.0101871
0.00630644
0.00450749
0.00342904
0.00328879
0.00349261
0.0045718
0.0080941
0.0182965
0.0252621
0.0248153
0.0383871
0.0340421
0.0326294
0.0344575
0.0399946
0.0494218
0.0580942
0.064346
0.0686085
0.0707946
0.0714384
0.0718625
0.0715422
0.0708386
0.0701385
0.0693083
0.0680964
0.0665508
0.0641319
0.0610148
0.0575508
0.0534339
0.0485192
0.0460276
0.0461114
0.0489699
0.0586991
0.0637009
0.063401
0.0603115
0.064228
0.0810279
0.0861638
0.0851437
0.0782225
0.0527339
0.0224374
0.0115888
0.0117878
0.0199455
0.0312788
0.03239
0.0367083
0.0594277
0.149175
0.253613
0.312102
0.34528
0.359511
0.358915
0.343172
0.304412
0.242866
0.198054
0.177612
0.131814
0.037607
0.00990618
0.0038183
0.00230928
0.00175279
0.00144932
0.00123787
0.00119249
0.00125743
0.00146503
0.00186163
0.00251599
0.00357366
0.00526727
0.00789804
0.00960433
0.0112949
0.0135751
0.0157978
0.017726
0.0192347
0.0205827
0.0218208
0.022878
0.0235866
0.0242775
0.0248364
0.0251949
0.0254866
0.0257308
0.0258579
0.0260015
0.026111
0.0264089
0.0275379
0.030811
0.0359804
0.0400258
0.0413305
0.0399748
0.0286448
0.0250005
0.043501
0.11324
0.150291
0.156933
0.154182
0.124569
0.109874
0.105433
0.104989
0.109049
0.114529
0.116295
0.11772
0.119136
0.12017
0.120715
0.120714
0.119603
0.116915
0.112689
0.105478
0.100917
0.099442
0.0993935
0.100039
0.101017
0.101412
0.101659
0.0992739
0.0900779
0.0823699
0.0754788
0.0660867
0.0540594
0.0401533
0.0272471
0.0173127
0.0103804
0.00601885
0.00341227
0.00190654
0.0012439
0.00109863
0.00117107
0.00174414
0.00406228
0.0135705
0.0304288
0.0449205
0.0488207
0.0541121
0.065251
0.088827
0.144504
0.206832
0.246691
0.270427
0.279956
0.29047
0.307743
0.316661
0.313288
0.271622
0.150508
0.0995122
0.0872478
0.0842473
0.0822564
0.0780223
0.0663135
0.0376118
0.019102
0.010426
0.00602488
0.00391809
0.00275599
0.0024506
0.00258777
0.00361488
0.00797088
0.019751
0.0143607
0.042721
0.0433006
0.0462238
0.0547883
0.0728362
0.088733
0.100984
0.108544
0.112376
0.113926
0.114368
0.11376
0.112836
0.11127
0.108731
0.105453
0.101201
0.0956924
0.0891934
0.0822039
0.0745557
0.0657076
0.0576516
0.0523425
0.0516888
0.0555766
0.0654358
0.0672871
0.0635252
0.0643274
0.0820302
0.0869878
0.0855313
0.0781657
0.0591024
0.0265648
0.0111767
0.00892093
0.0123641
0.0230331
0.0262637
0.0271782
0.0387402
0.0941227
0.221436
0.290524
0.330749
0.353385
0.358384
0.351795
0.325106
0.276277
0.219774
0.179124
0.145945
0.0590538
0.0169353
0.00535176
0.0027097
0.00201512
0.00173731
0.00149222
0.00138673
0.00147213
0.00180014
0.00244949
0.00356188
0.00545351
0.0076891
0.00974712
0.0109287
0.0129285
0.0160316
0.0188797
0.0209839
0.0226677
0.0241227
0.025179
0.026004
0.0265033
0.0271002
0.0275263
0.0279367
0.0283161
0.0285942
0.0286544
0.0286682
0.0284125
0.0278413
0.0267835
0.0254839
0.0248524
0.0251282
0.0287189
0.0379914
0.0442164
0.0452093
0.0352668
0.0252761
0.0416587
0.10358
0.136246
0.138969
0.120198
0.10211
0.0990375
0.0995994
0.105073
0.112175
0.114925
0.116478
0.117932
0.118942
0.119468
0.11947
0.118896
0.117253
0.113703
0.10654
0.100291
0.0969875
0.0964465
0.097229
0.0994283
0.100238
0.0997995
0.0978932
0.0904833
0.0806957
0.0732485
0.0650723
0.0519905
0.0375184
0.0244167
0.0146836
0.00845755
0.00467085
0.0024629
0.00128725
0.000824132
0.000758465
0.000885588
0.00173455
0.00553411
0.0176937
0.0301564
0.0332977
0.0386773
0.0496363
0.0739229
0.138771
0.204084
0.242474
0.263319
0.276767
0.28263
0.285485
0.29265
0.314801
0.322136
0.312141
0.230286
0.131078
0.0986407
0.0895021
0.0862585
0.0833716
0.0775484
0.0640285
0.0383032
0.0205047
0.0109861
0.00595644
0.00342908
0.00223651
0.00191301
0.00208218
0.00348152
0.00980543
0.00951557
0.051377
0.058347
0.0716196
0.100291
0.127242
0.144442
0.154139
0.159507
0.162796
0.165368
0.166861
0.167236
0.165628
0.161938
0.155513
0.146855
0.136795
0.126848
0.115461
0.104298
0.0893752
0.0708455
0.0581507
0.0550559
0.0574818
0.0667947
0.0698177
0.0670711
0.068325
0.0843772
0.0887855
0.083496
0.0748081
0.0613803
0.0310395
0.0119098
0.00695819
0.00797433
0.0140415
0.0198366
0.0204366
0.0236189
0.0476673
0.129097
0.250264
0.302906
0.332192
0.345281
0.346845
0.326432
0.279012
0.219033
0.168841
0.137614
0.0763916
0.0261984
0.00832725
0.00354311
0.00237512
0.00201659
0.00183333
0.00175224
0.00191246
0.00245053
0.00355292
0.00559455
0.00792715
0.00992278
0.0116067
0.0131739
0.0158036
0.0196037
0.022068
0.0237868
0.025105
0.025749
0.0263347
0.0267563
0.0271891
0.0276515
0.0280605
0.0283962
0.0286823
0.0290837
0.0297712
0.0301611
0.0305708
0.0310928
0.0318226
0.0325172
0.0325003
0.0299657
0.0254501
0.022941
0.0232617
0.0311141
0.0451624
0.0500427
0.0422526
0.028923
0.039354
0.0829945
0.119496
0.116045
0.101581
0.0947072
0.0916846
0.0935385
0.10018
0.10825
0.11189
0.113925
0.115151
0.115592
0.115115
0.113858
0.11118
0.107566
0.101484
0.0967044
0.0941798
0.0937008
0.0944249
0.0966017
0.097996
0.098047
0.0963373
0.0879343
0.0766453
0.071099
0.0614127
0.0475408
0.0331447
0.0205419
0.0114003
0.00576337
0.00289273
0.00144953
0.000757264
0.000518925
0.000511128
0.000696942
0.00178303
0.00681386
0.0162862
0.0202068
0.0257731
0.0354641
0.0579723
0.121595
0.191426
0.230238
0.251024
0.263807
0.264231
0.260592
0.256003
0.257703
0.269177
0.305995
0.312181
0.287116
0.179492
0.116814
0.096481
0.0891764
0.0857452
0.0824199
0.0762139
0.0633761
0.0404446
0.0224131
0.0113956
0.00566798
0.00293839
0.00181851
0.00159481
0.00191763
0.00444227
0.0192299
0.0804349
0.0830438
0.11791
0.158923
0.177523
0.187883
0.19447
0.199317
0.203042
0.205274
0.205603
0.204019
0.199262
0.191378
0.181377
0.170532
0.157815
0.14158
0.121761
0.0999637
0.0771761
0.0648483
0.0617567
0.0639645
0.0703132
0.0713717
0.0710536
0.0757822
0.0880777
0.0896495
0.077994
0.0696528
0.0589429
0.0357159
0.0130509
0.00613621
0.00562276
0.00793404
0.0136368
0.0148284
0.0152752
0.0207193
0.0514614
0.142111
0.259274
0.297342
0.311808
0.317648
0.308295
0.262029
0.208083
0.163976
0.134997
0.097231
0.0368481
0.01301
0.00511215
0.0029893
0.00239975
0.00219517
0.00224298
0.00263923
0.00364836
0.00570542
0.00804564
0.0100986
0.0117252
0.0131502
0.0148155
0.0176459
0.0215973
0.0238396
0.0249559
0.0255846
0.0261091
0.0263659
0.026768
0.027262
0.0278941
0.0284563
0.0287727
0.0288278
0.0287825
0.0288328
0.0294052
0.0301785
0.0306441
0.0312109
0.032028
0.033315
0.0350058
0.0370476
0.0377148
0.0320042
0.0235625
0.0207925
0.0235597
0.0387246
0.04949
0.0458917
0.0356187
0.0405621
0.0620538
0.0949563
0.0963992
0.0926456
0.0888477
0.0884138
0.0892099
0.0914285
0.0961752
0.1001
0.102387
0.103385
0.103295
0.102566
0.100915
0.0973715
0.0939631
0.0912942
0.0905984
0.0908862
0.0926882
0.094952
0.0957833
0.0955541
0.0934362
0.0842422
0.0740125
0.0672633
0.0571184
0.0436928
0.0291017
0.0169993
0.00894465
0.00449808
0.00217105
0.00102133
0.000526958
0.000389842
0.000401448
0.000617473
0.00175279
0.00620105
0.0108456
0.0157923
0.0236163
0.0413809
0.095282
0.175385
0.216184
0.239016
0.243808
0.24043
0.228985
0.217475
0.2176
0.220006
0.226758
0.26052
0.299356
0.295699
0.23199
0.14099
0.105205
0.092274
0.0867628
0.0838108
0.0808713
0.0753772
0.0636356
0.0406904
0.0226551
0.0110371
0.00504705
0.00242927
0.0015005
0.00144225
0.00227224
0.0431198
0.100609
0.0974757
0.164306
0.18664
0.19901
0.207867
0.213622
0.217249
0.218958
0.218879
0.217168
0.212351
0.203723
0.191397
0.17764
0.164219
0.147751
0.125641
0.096385
0.0773518
0.0710463
0.069714
0.0716346
0.0742778
0.0755875
0.0791794
0.0879009
0.0914912
0.0866598
0.0699654
0.0618704
0.0568579
0.0409269
0.0157341
0.00686361
0.00476505
0.00533261
0.0079846
0.0100618
0.0102145
0.0108629
0.0172344
0.0480581
0.136454
0.251957
0.284449
0.289987
0.28407
0.256208
0.210241
0.167756
0.145
0.117493
0.0565276
0.0203075
0.00799141
0.00413526
0.00302758
0.00268315
0.00280515
0.0035264
0.00545431
0.00839553
0.0103257
0.0119039
0.0133133
0.014414
0.0156826
0.0181925
0.0220021
0.0244325
0.02543
0.0258727
0.0261822
0.0267428
0.0273165
0.0283856
0.0301324
0.0319419
0.0327873
0.0329814
0.0316919
0.0297459
0.0283285
0.0273071
0.0279937
0.0288596
0.029856
0.0311329
0.0327132
0.0345896
0.0370514
0.0403075
0.0433803
0.0418915
0.0294452
0.0202834
0.0195811
0.0313225
0.0454752
0.0448584
0.0399308
0.0412023
0.0490911
0.0666804
0.0790481
0.081627
0.0826778
0.0833244
0.0845705
0.0863125
0.088412
0.0901853
0.0916191
0.0920996
0.091727
0.0907722
0.0888112
0.0871026
0.0868653
0.0870219
0.0880457
0.090721
0.09246
0.0930252
0.0925841
0.0896006
0.0788264
0.0696792
0.0629542
0.0529155
0.0386518
0.0239739
0.0127392
0.00619784
0.00289327
0.00135834
0.000661277
0.000374978
0.000309617
0.000334058
0.000555982
0.00152571
0.00448477
0.0080941
0.0140769
0.0267031
0.0623612
0.15015
0.201787
0.2255
0.228431
0.224736
0.209624
0.201728
0.202759
0.209012
0.215519
0.219813
0.237266
0.284678
0.292872
0.266137
0.173892
0.118747
0.0963922
0.0874892
0.0838354