/*--------------------------------*- C++ -*----------------------------------*\
  =========                 |
  \\      /  F ield         | OpenFOAM: The Open Source CFD Toolbox
   \\    /   O peration     | Website:  https://openfoam.org
    \\  /    A nd           | Version:  6
     \\/     M anipulation  |
\*---------------------------------------------------------------------------*/
FoamFile
{
    version     2.0;
    format      ascii;
    class       volScalarField;
    location    "0.1";
    object      nut;
}
// * * * * * * * * * * * * * * * * * * * * * * * * * * * * * * * * * * * * * //

dimensions      [0 2 -1 0 0 0 0];

internalField   nonuniform List<scalar> 
12225
(
0
0
0
0
0
0
0
0
0
0
0
0
0
0
0
0
0
0
0
0
0
0
0
0
0
0
0
0
0
0
0
0
0
0
0
0
0
0
0
0
0
0
0
0
0
5.58935e-10
8.22306e-10
1.6634e-10
0
0
0
0
0
0
4.92262e-08
3.13627e-09
0
0
0
0
0
0
1.07339e-09
2.96863e-09
1.69001e-09
0
0
0
0
0
0
0
3.8335e-07
6.32819e-09
0
0
0
0
0
0
0
0
0
0
0
0
0
3.9511e-08
3.90932e-08
3.21713e-08
2.3362e-07
5.56177e-08
1.01327e-07
4.4442e-08
1.01933e-07
1.28365e-07
0
0
0
0
0
0
0
0
0
0
0
0
3.88181e-07
1.6742e-07
4.75482e-07
2.8332e-07
1.57149e-07
1.75993e-07
3.52093e-08
0
5.05303e-08
1.88909e-07
2.20553e-07
1.88294e-07
8.59327e-08
0
0
0
0
0
4.18442e-07
0
9.93334e-07
1.44951e-06
3.89463e-07
2.56064e-07
4.19868e-08
1.28486e-07
1.41017e-06
2.66764e-06
3.02693e-06
2.6103e-06
1.75862e-06
9.24705e-07
4.41512e-08
0
0
0
0
0
0
0
0
0
0
2.56041e-07
1.98052e-06
3.76083e-06
5.26933e-06
6.05513e-06
5.34813e-06
2.33061e-06
0
0
0
0
0
0
0
0
0
0
0
4.99994e-07
1.47426e-06
2.43575e-06
3.60709e-06
4.52907e-06
1.89749e-06
0
0
0
0
0
0
0
0
0
0
0
0
4.82742e-07
1.10233e-06
1.6277e-06
1.40266e-06
4.13823e-07
0
0
0
0
0
0
1.43245e-07
0
0
0
0
0
0
3.79003e-07
6.56782e-07
4.14771e-09
8.36078e-08
2.17275e-07
1.28627e-07
0
0
0
0
0
5.46366e-07
8.42622e-07
0
0
0
0
0
1.1741e-07
2.32676e-08
0
0
5.35779e-08
3.02293e-07
3.07158e-07
0
0
0
0
1.48781e-06
3.23243e-06
1.47042e-06
7.4038e-07
1.20801e-07
0
0
2.46782e-07
1.94639e-07
4.84745e-08
2.88453e-09
1.76262e-07
5.20586e-07
7.90542e-07
8.28124e-07
5.92614e-07
0
0
1.14921e-06
1.73469e-06
8.34494e-07
1.67349e-07
1.73245e-07
0
3.21288e-07
6.88289e-07
6.1294e-07
6.13333e-07
8.0887e-07
8.28895e-07
5.91763e-07
3.22273e-07
9.70274e-08
0
0
0
1.10793e-06
1.52289e-06
1.7947e-06
2.49841e-07
0
0
0
3.33847e-07
4.21178e-07
4.14472e-07
5.33239e-07
3.52067e-07
0
0
0
0
0
0
7.93533e-07
2.35474e-06
3.38451e-06
1.68046e-06
1.74055e-07
3.65045e-07
7.54829e-07
5.50596e-07
0
0
1.30273e-08
0
0
0
0
0
0
0
0
0
0
0
0
0
0
0
0
0
0
0
0
0
0
0
0
0
0
0
7.94808e-06
6.78064e-06
3.46358e-06
1.58095e-06
1.4258e-06
3.57268e-06
4.83479e-06
2.74862e-06
1.11944e-06
1.22203e-07
0
0
0
0
0
0
1.12941e-06
1.9148e-06
0
0
0
0
0
0
1.51889e-06
1.14844e-06
5.44832e-07
1.55971e-07
0
0
0
0
0
0
0
0
0
0
0
0
0
0
6.22252e-07
4.28744e-07
1.61852e-07
1.39413e-07
0
0
0
0
0
0
0
0
0
0
0
0
0
0
0
0
2.29463e-07
7.43069e-08
0
0
0
0
0
0
0
0
0
0
0
0
0
0
0
0
0
0
0
0
0
0
0
0
0
1.54153e-06
7.60139e-07
0
0
0
0
0
3.45797e-07
7.23567e-07
4.67693e-07
0
0
0
0
0
0
0
0
1.70133e-06
1.41629e-06
0
0
0
0
1.91293e-07
5.2884e-07
6.93952e-07
6.81584e-07
3.22614e-07
3.66497e-07
4.2604e-07
4.87695e-07
7.87002e-07
7.06362e-07
0
0
0
0
0
0
0
8.77873e-08
1.85822e-07
2.57498e-07
2.57495e-07
1.0006e-07
3.66116e-08
3.96375e-07
3.56243e-07
2.18518e-07
2.46714e-07
3.11891e-07
1.41708e-07
1.59454e-07
9.15097e-08
1.56932e-08
5.26066e-09
8.62572e-09
5.21631e-09
0
0
0
0
0
0
0
9.36376e-11
2.14809e-09
2.1091e-09
1.03961e-09
0
0
0
0
0
0
0
0
0
0
0
0
0
0
0
0
1.59768e-10
1.28799e-10
0
0
0
0
0
0
0
0
0
0
0
0
0
0
0
0
0
0
0
0
0
0
0
0
0
0
0
0
0
0
0
0
0
0
0
0
0
0
6.55514e-06
1.16215e-05
7.24923e-06
0
0
0
0
0
3.76546e-06
4.87361e-06
3.48008e-06
1.42419e-06
0
0
0
0
0
0
0
0
0
0
2.92732e-07
2.27169e-06
1.49504e-06
0
0
0
0
0
8.9765e-07
2.71135e-06
0
0
0
0
0
0
0
0
3.39184e-06
5.51206e-06
4.34371e-06
6.88633e-07
0
0
0
0
0
0
0
0
7.12098e-07
1.48747e-06
2.0728e-06
2.45829e-06
4.30431e-06
1.66047e-05
4.77337e-05
8.07678e-05
0.000106939
0.000102036
5.08178e-05
1.25e-05
3.19386e-06
6.11114e-07
2.90091e-07
2.23917e-07
2.19971e-07
2.62128e-07
2.79406e-07
2.8794e-07
2.86953e-07
2.73971e-07
2.52038e-07
2.21716e-07
1.82036e-07
1.3511e-07
8.65446e-08
4.20629e-08
0
0
0
0
0
0
0
0
0
0
0
0
0
0
0
0
0
0
0
0
0
5.11281e-07
1.05791e-05
2.05036e-05
7.52737e-06
1.25898e-06
6.8847e-06
1.38648e-05
6.10018e-06
2.45857e-06
1.48189e-06
9.23976e-07
5.51991e-07
2.71822e-07
6.53414e-08
0
0
0
0
0
0
0
0
0
0
0
0
0
0
0
0
0
0
0
0
0
0
0
0
6.81443e-08
1.24155e-07
1.19437e-07
9.1261e-08
6.2688e-08
4.25848e-08
2.79243e-08
1.24143e-08
0
0
0
0
0
0
0
0
0
8.77127e-10
2.91788e-08
1.90776e-08
0
0
0
0
0
4.80435e-07
1.77031e-06
4.84678e-08
0
1.12357e-06
1.99757e-06
1.62089e-06
2.3819e-06
1.55723e-06
0
0
0
0
0
0
0
0
0
0
0
0
0
0
2.61457e-06
3.83591e-06
4.09983e-06
3.66895e-06
2.63512e-06
1.25158e-06
2.32432e-08
0
0
0
0
0
0
0
0
0
3.89374e-07
0
0
0
0
0
0
0
0
0
0
0
0
0
0
0
0
1.93727e-06
3.95527e-06
2.8499e-06
0
0
0
0
0
0
0
0
1.1557e-07
1.56352e-06
3.19111e-06
4.93712e-06
7.67302e-06
1.44546e-05
1.98107e-05
2.40337e-05
2.21344e-05
1.70463e-05
1.21619e-05
1.00734e-05
6.39086e-06
2.67485e-06
7.31164e-07
4.3877e-07
2.45743e-07
1.80861e-07
1.77377e-07
1.55036e-07
1.42719e-07
1.32585e-07
1.22384e-07
1.11555e-07
9.93585e-08
8.39652e-08
6.4982e-08
4.34034e-08
1.98926e-08
0
0
0
0
0
0
0
0
0
0
0
0
0
0
0
0
0
0
0
0
0
0
4.666e-06
1.76871e-06
2.89362e-06
6.1034e-06
7.29958e-06
1.28189e-05
5.61884e-06
2.52286e-06
1.82539e-06
1.2451e-06
7.8742e-07
3.7522e-07
5.32176e-08
0
0
0
0
0
0
0
0
0
0
0
0
0
0
0
0
0
0
0
0
0
0
0
0
1.57424e-07
3.32712e-07
3.41345e-07
2.95015e-07
2.44819e-07
2.08126e-07
1.82193e-07
1.57859e-07
1.27574e-07
8.8157e-08
4.24617e-08
0
0
0
0
0
0
0
1.95258e-08
9.92449e-09
0
0
0
0
0
5.44942e-07
1.87784e-06
0
0
1.55176e-07
2.09625e-07
0
0
0
0
0
0
0
0
0
0
0
0
0
0
0
0
0
1.35238e-06
1.73976e-06
1.71522e-06
1.54987e-06
1.27782e-06
7.92194e-07
4.73885e-08
0
0
0
0
0
0
0
0
0
0
0
0
0
0
0
3.71586e-07
3.64627e-06
7.03024e-06
7.84208e-06
0
0
2.0564e-06
5.4019e-07
0
0
0
0
0
0
0
0
0
2.39162e-06
4.85936e-06
5.60332e-06
4.92915e-06
3.53903e-06
2.43252e-06
1.13786e-06
0
0
2.58659e-06
7.1868e-06
9.92734e-06
9.07441e-06
7.38749e-06
4.57194e-06
1.59823e-06
2.27557e-06
2.4317e-06
6.50907e-07
4.17196e-08
1.33529e-07
3.33011e-08
7.45431e-08
9.38832e-08
6.34806e-08
3.99135e-08
1.35077e-08
0
0
0
0
0
0
0
0
0
0
0
0
0
0
0
0
0
0
0
0
0
0
0
0
0
0
0
0
0
0
0
0
1.87369e-07
1.96996e-06
8.26582e-06
8.38594e-06
5.6716e-06
5.2702e-06
3.67197e-06
2.28546e-06
9.63115e-07
0
0
0
0
0
0
0
0
0
0
0
0
0
0
0
0
0
0
0
0
0
0
0
0
0
0
0
0
0
1.05384e-07
2.56248e-07
3.69494e-07
4.37946e-07
4.61937e-07
4.42237e-07
3.86662e-07
3.13489e-07
2.32275e-07
1.62788e-07
1.0574e-07
3.94875e-08
0
0
0
0
0
0
0
0
0
7.65356e-07
1.79398e-06
0
0
0
0
0
0
0
0
0
0
2.36745e-07
3.47144e-07
0
0
0
0
0
0
0
0
0
1.06253e-06
1.16462e-06
1.08565e-06
1.00936e-06
9.14823e-07
7.14254e-07
3.9466e-07
0
0
0
0
0
0
0
0
0
0
0
0
0
0
0
4.09404e-06
9.25989e-06
9.86687e-06
5.99974e-06
1.58036e-06
0
0
4.59841e-06
8.0843e-06
0
0
0
0
8.55594e-07
4.4557e-06
7.98536e-06
1.03501e-05
1.24547e-05
1.51109e-05
1.79123e-05
1.65046e-05
9.05455e-06
3.24681e-06
4.47536e-07
0
0
1.04579e-06
3.96323e-06
4.08474e-06
2.10993e-06
1.73782e-06
1.46073e-06
2.74857e-07
1.11295e-07
0
0
0
0
0
0
0
0
0
0
0
0
0
0
0
0
0
0
0
0
0
0
0
0
0
0
0
0
0
0
0
0
0
0
0
0
0
0
0
0
0
0
0
0
0
0
0
0
0
0
0
1.6676e-07
4.7006e-07
6.6317e-07
5.02649e-07
2.04921e-07
0
0
0
0
0
0
0
0
0
0
0
0
0
0
0
0
0
0
0
0
0
0
0
0
0
0
0
0
0
0
0
0
0
0
0
0
0
0
0
0
4.50334e-07
3.21663e-06
4.67092e-06
5.39652e-06
3.21006e-06
2.66412e-06
2.70846e-06
0
0
0
0
0
0
0
0
0
0
0
2.83241e-07
3.13945e-07
2.62469e-07
3.36358e-06
3.41572e-06
1.39567e-06
3.14871e-07
0
1.80918e-07
1.47855e-06
1.66156e-06
1.34426e-06
1.06737e-06
8.53258e-07
5.93336e-07
2.35097e-07
0
0
0
0
0
0
0
0
0
0
1.93633e-06
2.18442e-06
5.08416e-07
0
0
0
3.61508e-07
9.48905e-06
3.93951e-06
1.1228e-06
0
0
0
0
0
0
0
1.39229e-07
1.32898e-06
3.667e-06
5.80297e-06
7.91401e-06
1.01404e-05
1.26436e-05
1.69434e-05
1.66226e-05
8.95722e-06
3.55964e-06
9.41072e-08
0
0
0
0
0
0
0
0
0
0
0
0
0
0
0
0
0
0
0
0
0
0
0
0
0
0
0
0
0
0
0
0
0
0
0
0
0
0
0
0
0
0
0
0
2.74166e-07
3.48038e-06
5.57901e-06
2.89275e-06
0
0
0
0
0
0
0
0
0
0
0
0
0
0
1.09505e-07
6.35887e-07
1.16536e-06
1.40362e-06
1.50608e-06
1.42021e-06
1.17003e-06
8.40406e-07
5.02287e-07
2.18803e-07
0
0
0
0
0
0
0
0
0
0
0
0
0
0
0
0
0
0
0
0
0
0
0
0
0
0
0
0
0
0
0
0
0
0
0
0
3.6866e-06
6.06487e-06
7.6298e-06
8.39659e-06
6.76269e-06
5.80993e-06
1.28185e-06
0
0
0
0
0
0
0
0
0
0
1.10011e-07
3.10989e-07
4.37774e-06
8.54337e-06
4.52147e-06
2.40974e-06
1.25583e-06
1.13445e-06
1.97847e-06
2.43288e-06
2.03589e-06
1.4943e-06
1.0378e-06
6.14539e-07
1.52764e-07
0
0
0
0
0
0
0
0
0
0
0
0
0
0
0
0
0
0
2.25363e-06
1.32251e-06
2.32629e-07
0
0
0
0
0
6.49523e-07
1.13645e-06
1.60073e-06
1.89725e-06
3.12236e-06
4.9707e-06
7.26502e-06
1.01876e-05
1.59164e-05
1.64089e-05
8.50053e-06
4.20588e-06
4.73469e-07
0
0
0
0
0
0
0
0
0
0
0
0
0
0
0
0
0
0
0
0
0
0
0
0
0
0
0
0
0
0
0
0
0
0
0
0
0
0
0
0
0
0
0
0
3.68003e-06
7.23129e-06
1.11469e-05
1.38177e-05
1.3831e-05
1.36377e-05
1.50077e-05
1.93638e-05
2.71461e-05
2.27629e-05
9.75187e-06
6.82063e-06
5.20418e-06
1.26638e-06
0
0
0
0
0
0
0
1.39691e-07
3.14307e-07
4.99902e-07
6.95879e-07
9.05759e-07
1.10669e-06
1.30687e-06
1.52856e-06
1.58119e-06
9.18035e-07
0
0
0
0
5.01608e-07
2.19366e-07
0
0
0
0
0
0
0
0
0
0
0
0
0
0
0
0
0
0
0
0
0
0
0
0
0
0
0
0
1.31079e-06
6.51211e-06
8.44745e-06
9.77565e-06
1.07312e-05
1.07822e-05
8.18142e-06
1.94916e-06
0
2.29059e-07
1.83838e-07
0
0
0
0
8.63636e-08
1.98114e-07
3.26914e-07
2.59375e-07
1.46191e-05
6.83985e-06
2.65011e-06
1.56651e-06
1.53425e-06
2.39481e-06
3.4686e-06
3.525e-06
3.01414e-06
2.4415e-06
1.9333e-06
1.46603e-06
1.03504e-06
6.49962e-07
2.92694e-07
0
0
0
0
0
0
0
0
0
0
0
0
0
0
0
0
0
1.58549e-06
5.45301e-07
0
0
0
0
1.28952e-06
1.35193e-06
1.30808e-06
4.90829e-07
1.03704e-06
2.46399e-06
4.56149e-06
7.49161e-06
1.32036e-05
1.58806e-05
9.37019e-06
7.70022e-06
5.57691e-06
2.74272e-06
8.07447e-07
0
0
0
0
0
0
0
0
0
0
0
0
0
0
0
0
0
0
0
0
0
0
0
0
0
0
0
0
0
0
0
0
0
0
0
0
0
0
0
0
0
0
0
1.15328e-06
2.69279e-06
5.02305e-06
8.32247e-06
1.0322e-05
1.21759e-05
1.47578e-05
1.8015e-05
1.72857e-05
1.04973e-05
5.91305e-06
3.81853e-06
2.21035e-06
1.76609e-06
5.42869e-07
0
0
0
0
0
0
0
0
0
0
0
1.06635e-07
5.78199e-07
1.28253e-06
2.10075e-06
2.3716e-06
9.40215e-07
0
0
0
2.32214e-06
1.95236e-06
0
0
0
0
0
0
0
0
0
0
0
0
0
0
0
0
0
0
0
0
0
0
0
0
0
0
0
0
0
5.85215e-06
9.14263e-06
1.04757e-05
1.15166e-05
1.28711e-05
1.11939e-05
5.27402e-06
3.0066e-06
3.51352e-06
3.20049e-06
1.8939e-06
9.79339e-07
5.77528e-07
5.34289e-07
7.84017e-07
7.55897e-07
7.33754e-07
4.73926e-07
1.40408e-05
4.28898e-06
1.84936e-06
1.48225e-06
2.41121e-06
4.36186e-06
5.52954e-06
5.27139e-06
4.72492e-06
4.27411e-06
4.16299e-06
4.41493e-06
4.91193e-06
5.46186e-06
5.89807e-06
5.9685e-06
5.56657e-06
4.60314e-06
3.20121e-06
1.61558e-06
1.08633e-07
0
0
0
0
0
0
0
0
0
0
6.69254e-07
2.98257e-06
2.35857e-08
0
0
0
1.83927e-06
1.55671e-06
1.0339e-06
0
0
1.42476e-07
1.52523e-06
3.53246e-06
5.86183e-06
7.65937e-06
8.85801e-06
9.17035e-06
8.11552e-06
6.58101e-06
5.16025e-06
4.60722e-06
3.09401e-06
1.24897e-07
0
0
0
0
0
0
0
0
0
0
0
0
0
0
0
0
0
0
0
0
0
0
0
0
3.55136e-07
7.91257e-07
9.9201e-07
1.02122e-06
9.59251e-07
8.43477e-07
6.78084e-07
4.52696e-07
1.59322e-07
0
0
0
0
0
0
0
0
3.14219e-07
7.38067e-07
1.08298e-06
2.411e-06
4.50033e-06
6.68612e-06
8.64067e-06
9.22326e-06
6.91679e-06
3.69018e-06
9.10862e-07
0
3.57871e-07
8.92196e-07
7.9189e-08
0
0
0
0
0
0
0
0
0
0
0
0
1.39853e-08
6.15585e-07
1.44262e-06
2.20096e-06
1.74741e-06
0
0
1.62335e-06
4.73737e-06
3.87442e-06
9.2931e-07
0
0
0
0
0
0
0
0
0
0
0
0
0
0
0
0
0
0
0
0
0
0
0
0
0
0
0
0
2.81173e-06
9.55507e-06
1.11454e-05
1.18514e-05
1.2923e-05
1.34105e-05
9.02859e-06
4.82182e-06
3.73753e-06
3.10032e-06
2.64486e-06
2.50589e-06
2.41114e-06
1.67588e-06
1.38314e-06
1.07354e-06
1.13461e-06
7.9039e-07
6.8685e-06
4.14659e-06
2.42435e-06
2.3844e-06
4.54206e-06
7.84176e-06
8.09448e-06
7.21298e-06
7.65681e-06
9.9088e-06
1.33963e-05
1.64498e-05
1.74781e-05
1.62546e-05
1.3797e-05
1.10587e-05
8.4844e-06
6.193e-06
4.18787e-06
2.43434e-06
9.73758e-07
0
0
0
0
0
3.14684e-07
2.98716e-07
0
0
0
3.71105e-06
3.86116e-06
0
0
0
2.09098e-06
2.02409e-06
1.14834e-06
3.12915e-07
0
0
0
7.7981e-07
1.7024e-06
0
3.3079e-06
8.58479e-06
8.39381e-06
7.07583e-06
6.7829e-06
7.11901e-06
7.69615e-06
6.46062e-06
3.16295e-06
0
0
0
0
0
0
0
0
0
0
0
0
0
0
0
0
0
0
0
0
0
2.48468e-07
5.8441e-07
7.89277e-07
8.57078e-07
8.95729e-07
9.57913e-07
1.03773e-06
1.11239e-06
1.16123e-06
1.16282e-06
1.09323e-06
9.41493e-07
7.18786e-07
4.38869e-07
1.00433e-07
0
0
0
0
0
0
2.73789e-07
5.53474e-08
0
6.5293e-07
2.58409e-06
4.55332e-06
5.19099e-06
3.39588e-06
4.78045e-07
0
0
0
0
0
0
0
0
0
0
0
0
0
0
0
0
0
0
4.47987e-07
1.03438e-06
1.57407e-06
1.58669e-06
6.11124e-07
9.16295e-07
4.66156e-06
7.4382e-06
5.73531e-06
2.01586e-06
0
0
0
0
0
0
0
0
0
0
0
0
0
0
0
0
0
0
0
0
0
0
0
0
0
0
0
0
0
9.45233e-06
1.1827e-05
1.22737e-05
1.29551e-05
1.38056e-05
1.21558e-05
7.68079e-06
5.19672e-06
3.72839e-06
2.58695e-06
1.99719e-06
2.04795e-06
2.38477e-06
2.67168e-06
1.4073e-06
1.17435e-06
1.039e-06
2.17503e-06
4.31384e-06
4.13437e-06
4.85116e-06
9.10928e-06
1.08574e-05
1.11466e-05
1.58344e-05
2.27175e-05
2.81901e-05
2.87867e-05
2.48305e-05
1.9171e-05
1.39148e-05
9.6847e-06
6.4718e-06
4.09652e-06
2.32619e-06
9.57709e-07
0
0
0
0
0
5.95883e-08
6.97701e-07
9.2261e-07
0
0
0
2.8153e-06
6.43252e-06
2.86683e-06
0
0
2.4557e-06
2.62359e-06
1.51504e-06
7.29643e-07
2.13719e-07
0
0
0
3.22906e-07
0
0
4.70934e-06
8.01799e-06
7.53855e-06
7.02262e-06
8.23113e-06
9.61374e-06
1.06286e-05
1.00394e-05
6.39964e-06
0
0
0
0
0
0
0
0
0
0
0
0
0
0
0
0
0
0
0
6.00588e-07
1.30823e-06
1.49933e-06
1.81192e-07
0
0
0
0
0
0
1.13239e-07
3.44566e-07
4.4481e-07
4.23718e-07
3.38274e-07
2.63322e-07
2.1555e-07
1.28588e-07
0
0
0
0
0
2.85175e-07
1.59197e-07
0
0
8.03783e-08
2.03456e-06
3.18461e-06
2.12968e-06
0
0
0
0
0
0
0
0
0
0
0
0
0
0
0
0
0
0
0
3.88929e-07
1.03476e-06
1.3522e-06
1.36214e-06
1.17221e-06
3.11284e-06
7.4862e-06
9.80722e-06
7.42941e-06
2.92871e-06
0
0
0
0
0
0
0
0
0
0
0
0
0
0
0
0
0
0
0
0
0
0
0
0
0
0
0
0
0
8.30588e-06
1.25812e-05
1.27753e-05
1.29804e-05
1.35751e-05
1.28616e-05
1.02682e-05
7.40602e-06
5.14293e-06
3.39281e-06
2.25474e-06
1.87056e-06
1.92349e-06
2.38326e-06
2.32325e-06
1.08024e-06
9.27302e-07
5.5875e-07
2.26929e-06
4.28184e-06
8.93461e-06
1.35638e-05
1.81573e-05
2.5135e-05
3.13576e-05
3.45502e-05
3.28757e-05
2.74273e-05
2.05998e-05
1.41763e-05
8.89135e-06
4.85064e-06
1.90312e-06
0
0
0
0
0
0
0
0
4.68935e-07
9.9922e-07
4.69976e-07
0
0
1.84772e-06
6.65288e-06
6.40125e-06
1.41424e-07
2.59294e-07
3.57727e-06
3.44616e-06
2.13925e-06
1.23221e-06
7.02315e-07
6.45183e-07
3.10461e-08
0
0
0
0
0
5.03114e-06
7.7674e-06
7.66217e-06
8.27078e-06
1.04328e-05
1.23521e-05
1.45192e-05
1.7683e-05
1.30328e-05
5.94224e-07
0
0
0
0
0
0
0
0
0
0
0
0
0
0
0
0
4.31368e-07
1.53671e-06
3.13476e-06
4.19358e-06
0
0
0
0
0
0
0
0
3.18456e-07
5.99638e-07
6.82098e-07
5.34064e-07
2.24294e-07
0
0
0
0
0
0
0
0
1.85247e-07
5.94764e-07
2.08393e-07
0
0
4.84034e-07
1.68856e-06
1.13832e-06
0
0
0
0
1.22529e-07
0
0
0
0
0
0
0
0
0
0
0
0
0
0
3.35506e-07
1.23904e-06
1.54222e-06
1.38749e-06
1.81241e-06
5.39883e-06
9.52407e-06
1.10438e-05
8.30039e-06
3.37195e-06
4.78259e-07
0
0
0
0
0
0
0
0
0
0
0
0
0
0
0
0
0
0
0
0
0
0
0
0
0
4.96948e-06
1.16297e-06
0
6.12359e-06
1.33069e-05
1.33955e-05
1.29319e-05
1.30254e-05
1.26714e-05
1.10445e-05
9.19354e-06
6.80118e-06
4.54706e-06
2.88287e-06
2.0152e-06
1.95823e-06
2.5365e-06
2.8997e-06
1.12375e-08
3.65995e-07
2.51523e-07
8.18404e-07
2.20069e-06
1.2306e-05
1.27913e-05
2.04151e-05
2.66954e-05
3.08385e-05
3.14113e-05
2.83302e-05
2.30808e-05
1.71394e-05
1.15062e-05
6.83385e-06
3.25882e-06
5.35801e-07
0
0
0
0
0
0
0
4.31994e-09
7.34974e-07
5.38579e-07
0
0
2.39251e-06
6.34434e-06
7.34718e-06
3.43952e-06
2.35875e-06
4.64236e-06
4.23901e-06
2.59869e-06
1.6197e-06
1.06979e-06
7.39059e-07
1.01089e-06
0
0
0
0
0
0
4.34176e-06
6.95001e-06
7.2889e-06
8.23718e-06
1.02858e-05
1.31281e-05
1.93708e-05
1.66628e-05
8.40304e-06
4.98364e-06
2.8068e-06
0
0
0
0
0
0
0
0
0
0
0
0
0
1.65501e-07
1.0456e-06
2.54287e-06
5.01519e-06
7.02858e-06
0
0
0
0
0
0
0
0
0
4.52378e-07
9.66702e-07
1.29099e-06
1.26321e-06
9.12003e-07
4.1123e-07
0
0
0
0
0
0
0
0
0
0
8.48813e-08
4.69349e-07
6.98272e-07
9.45298e-07
3.61402e-07
0
0
0
0
0
0
0
0
0
0
0
0
0
0
0
0
0
0
0
4.24131e-07
1.67412e-06
2.02229e-06
1.67703e-06
2.99624e-06
7.9399e-06
1.06865e-05
1.14871e-05
8.37945e-06
3.35816e-06
8.3072e-07
0
0
0
0
0
0
0
0
0
0
0
0
0
0
0
0
0
0
0
0
0
0
0
0
0
9.01509e-06
8.92614e-06
2.14091e-06
4.44599e-06
1.36471e-05
1.40359e-05
1.28651e-05
1.23761e-05
1.2032e-05
1.08992e-05
9.3396e-06
7.59655e-06
5.31494e-06
3.51942e-06
2.32244e-06
2.0611e-06
3.04744e-06
2.14312e-06
0
0
8.73158e-08
1.91851e-07
5.24755e-07
2.79808e-06
9.40423e-06
1.52578e-05
1.92381e-05
2.11825e-05
2.08575e-05
1.84635e-05
1.50352e-05
1.14546e-05
7.9394e-06
4.74106e-06
2.03754e-06
0
0
0
0
0
0
0
0
3.14263e-07
6.13286e-07
6.37784e-07
1.3496e-06
3.70561e-06
6.55381e-06
7.30711e-06
4.83851e-06
3.44426e-06
4.77763e-06
4.88536e-06
3.03578e-06
1.83015e-06
1.12744e-06
3.49304e-07
0
0
0
0
0
0
0
0
2.07085e-06
4.78558e-06
5.64527e-06
6.47226e-06
8.44875e-06
1.2307e-05
1.30682e-05
8.29593e-06
5.94e-06
3.96133e-06
1.34195e-06
0
0
0
0
0
0
0
0
0
0
0
0
3.85168e-07
1.18486e-06
2.4265e-06
3.96138e-06
2.35689e-06
0
0
0
0
0
0
0
0
0
0
0
0
7.34064e-07
1.17183e-06
1.21742e-06
9.75747e-07
5.67589e-07
1.41306e-07
0
0
0
0
0
0
0
0
0
0
2.88482e-07
1.10835e-06
1.10984e-06
0
0
0
0
0
0
0
0
0
0
0
0
0
0
0
0
0
0
0
8.58307e-07
2.4045e-06
2.63989e-06
2.30938e-06
5.31545e-06
9.9841e-06
1.12525e-05
1.15223e-05
7.50352e-06
2.98518e-06
1.07477e-06
1.96227e-07
0
0
0
0
0
0
0
0
0
0
0
0
0
0
0
0
0
0
0
0
0
0
0
0
1.03564e-05
1.4542e-05
7.39254e-06
4.57224e-06
1.37198e-05
1.48513e-05
1.28445e-05
1.16936e-05
1.11189e-05
1.01745e-05
8.72519e-06
7.07678e-06
5.25466e-06
3.50794e-06
2.48168e-06
2.02863e-06
3.67928e-06
1.50591e-06
0
0
0
0
0
3.12337e-06
7.28768e-06
9.49704e-06
1.09912e-05
1.18119e-05
1.17695e-05
1.06661e-05
8.72158e-06
6.49627e-06
4.21378e-06
2.01154e-06
4.35331e-09
0
0
0
0
0
0
0
0
5.86128e-07
1.48453e-06
2.86271e-06
4.72438e-06
6.48096e-06
6.80577e-06
5.58829e-06
4.69796e-06
4.64144e-06
4.20108e-06
3.03164e-06
1.91543e-06
1.12468e-06
6.16207e-07
2.55907e-07
0
0
0
0
0
0
0
0
0
2.42534e-06
3.89643e-06
4.76851e-06
5.94231e-06
7.14852e-06
5.48916e-06
4.93003e-06
4.35017e-06
2.16441e-06
4.54552e-07
0
0
0
0
0
0
0
0
0
0
0
2.68123e-07
8.1163e-07
1.5776e-06
2.04338e-06
0
0
0
0
0
0
0
0
0
0
0
0
0
0
1.92984e-07
7.93765e-07
1.02683e-06
1.02741e-06
9.39531e-07
7.1687e-07
3.79155e-07
1.56297e-07
1.18943e-07
7.37311e-08
0
0
0
0
0
0
0
0
1.93983e-07
2.5778e-07
0
0
0
0
0
0
0
0
0
0
0
0
0
0
0
0
0
0
1.86114e-06
3.32477e-06
3.19533e-06
3.73645e-06
8.21911e-06
1.07236e-05
1.13805e-05
1.09621e-05
5.85327e-06
2.66932e-06
1.31067e-06
4.47204e-07
1.13708e-07
0
0
0
0
0
0
0
0
0
0
0
0
0
0
0
0
0
0
0
0
0
0
0
9.58381e-06
1.72832e-05
1.04846e-05
5.27104e-06
1.30422e-05
1.53877e-05
1.27167e-05
1.09135e-05
1.00052e-05
9.05489e-06
7.69965e-06
6.06346e-06
4.25616e-06
2.701e-06
2.04055e-06
2.01064e-06
3.83773e-06
1.5945e-06
0
0
0
0
0
7.37483e-07
3.13504e-06
4.39549e-06
5.41362e-06
5.89103e-06
5.81029e-06
5.25724e-06
4.43474e-06
3.32374e-06
1.87005e-06
3.09557e-07
0
0
0
0
0
0
0
0
9.16593e-08
1.9319e-06
3.73118e-06
5.35482e-06
6.57239e-06
7.02264e-06
6.86707e-06
6.72852e-06
6.76844e-06
5.95247e-06
3.98488e-06
2.0355e-06
1.38217e-06
1.1372e-06
8.62141e-07
6.5513e-07
3.57056e-07
0
0
0
0
0
0
0
0
7.18437e-07
2.48496e-06
3.31177e-06
3.0174e-06
1.53263e-06
8.38771e-08
2.07536e-06
2.3439e-06
1.1137e-06
2.98563e-07
0
0
0
1.70488e-08
0
0
0
0
0
0
5.49934e-08
3.82122e-07
8.73305e-07
1.02597e-06
0
0
0
0
0
0
0
0
0
0
0
0
0
0
0
3.81777e-07
9.12558e-07
1.06459e-06
9.83256e-07
9.15757e-07
9.06473e-07
7.71513e-07
4.55613e-07
2.14358e-07
1.81505e-07
6.28402e-08
0
0
0
0
0
0
0
0
0
0
0
1.90201e-07
6.17988e-07
9.67162e-07
1.10187e-06
8.23698e-07
1.02401e-07
0
0
0
0
0
0
0
0
0
1.07811e-06
3.15353e-06
3.89675e-06
3.75695e-06
6.33806e-06
9.33159e-06
1.04057e-05
1.11126e-05
9.47384e-06
4.2383e-06
2.50683e-06
1.43043e-06
6.2466e-07
2.49106e-07
1.00281e-07
1.12103e-08
0
0
0
0
0
0
0
0
0
0
0
0
0
0
0
0
0
0
0
4.87455e-06
8.17097e-07
3.97226e-06
1.57078e-05
1.03034e-05
4.68312e-06
1.17662e-05
1.58002e-05
1.25861e-05
1.0017e-05
8.69606e-06
7.59844e-06
6.23641e-06
4.6719e-06
2.91092e-06
1.26806e-06
8.87431e-07
1.95186e-06
3.33881e-06
2.65922e-06
0
0
0
0
0
0
9.7535e-07
1.39138e-06
1.62787e-06
1.93306e-06
2.29438e-06
2.23504e-06
1.59609e-06
4.85517e-07
0
0
0
0
0
0
0
0
0
1.41932e-06
3.90674e-06
5.50125e-06
6.5348e-06
7.16052e-06
7.65325e-06
8.05571e-06
8.23118e-06
8.27918e-06
8.10743e-06
6.96893e-06
4.7865e-06
2.70042e-06
1.94662e-06
1.60976e-06
1.0798e-06
7.92301e-07
5.65399e-07
0
0
0
0
0
0
0
0
0
2.00039e-06
2.52295e-06
1.06953e-06
0
0
0
1.04247e-06
9.36443e-07
4.76026e-07
0
0
1.44776e-07
2.86698e-07
4.91314e-08
0
0
0
0
0
2.858e-08
3.06552e-07
4.1812e-07
0
0
0
0
0
0
0
0
0
0
0
0
0
0
0
1.20574e-07
8.9483e-07
1.27479e-06
1.20678e-06
9.07732e-07
6.64484e-07
5.41781e-07
4.62358e-07
2.24606e-07
0
0
0
0
0
0
0
1.74907e-07
1.72095e-07
0
0
0
0
0
0
4.81561e-07
1.63191e-06
2.9492e-06
4.91049e-06
7.6087e-06
9.64746e-06
7.3868e-06
9.69248e-07
0
0
0
0
0
4.41982e-07
2.49119e-06
3.96052e-06
4.12888e-06
5.57858e-06
8.00866e-06
9.22626e-06
1.0176e-05
1.06967e-05
7.24462e-06
3.59618e-06
2.42695e-06
1.37319e-06
6.67691e-07
3.24148e-07
1.75423e-07
7.89763e-08
0
0
1.2551e-07
0
0
0
0
0
0
0
0
0
0
0
0
0
0
0
1.68767e-05
4.05305e-05
1.92338e-05
0
4.675e-06
4.35444e-06
7.87888e-07
8.98038e-06
1.58882e-05
1.25649e-05
9.19655e-06
7.33707e-06
5.9197e-06
4.34154e-06
2.74456e-06
1.22466e-06
0
0
9.71387e-07
4.39513e-06
6.55029e-06
5.02937e-08
0
0
0
0
0
0
2.32489e-07
5.13367e-07
3.22431e-07
0
0
0
0
0
0
0
0
0
0
8.27592e-08
2.06348e-06
2.7506e-06
2.75108e-06
2.72364e-06
2.96086e-06
3.42856e-06
4.05453e-06
4.75609e-06
5.31463e-06
5.71916e-06
5.98379e-06
6.09532e-06
5.68171e-06
4.25729e-06
2.71562e-06
2.14602e-06
1.87691e-06
1.10875e-06
6.5457e-07
5.1113e-07
4.11953e-08
0
0
0
0
0
0
0
0
1.92108e-06
2.56015e-06
6.28303e-07
0
0
0
2.56217e-07
9.06007e-07
6.98352e-07
1.44985e-07
0
2.17644e-07
3.74319e-07
8.97463e-08
0
0
0
0
0
5.67459e-08
1.60388e-07
0
0
0
0
0
0
0
0
0
0
0
0
0
0
0
0
9.16441e-07
1.68225e-06
1.61216e-06
1.08296e-06
5.4773e-07
2.03503e-07
0
0
0
0
0
0
0
0
0
0
0
0
0
0
0
0
0
0
0
0
1.34493e-06
3.08828e-06
4.84329e-06
7.17773e-06
8.59537e-06
5.32024e-06
2.48765e-07
0
0
0
2.55102e-08
1.70628e-06
3.71952e-06
4.83042e-06
5.90442e-06
7.12229e-06
7.91888e-06
8.76479e-06
9.7204e-06
9.3602e-06
4.90142e-06
3.17168e-06
2.07766e-06
1.24996e-06
6.81967e-07
3.83424e-07
2.35414e-07
1.20175e-07
0
4.33327e-08
3.48102e-07
0
0
0
0
0
0
0
0
0
0
0
0
0
0
1.23938e-05
4.16201e-05
8.62067e-05
9.58229e-05
0
0
0
0
3.73719e-06
1.50102e-05
1.22961e-05
8.36564e-06
6.01824e-06
4.18408e-06
2.17479e-06
2.19465e-07
0
0
0
0
1.77398e-06
9.40717e-06
0
0
0
0
0
0
0
0
0
0
0
0
0
0
0
0
1.07357e-06
5.23668e-06
1.08255e-05
1.3352e-05
6.47972e-06
0
0
0
0
0
0
0
0
1.65597e-06
2.54046e-06
2.3898e-06
1.98916e-06
2.03019e-06
2.21502e-06
1.96781e-06
1.76754e-06
1.91069e-06
1.52835e-06
7.38028e-07
5.07405e-07
2.73716e-07
0
0
0
0
0
0
0
0
1.30375e-06
2.4364e-06
1.01764e-06
0
0
0
0
7.52409e-07
7.76499e-07
2.28255e-07
0
1.70884e-07
3.82847e-07
1.41701e-07
0
3.12791e-08
1.97327e-09
0
7.65898e-08
2.25629e-07
2.45188e-07
0
0
0
0
0
0
0
0
0
0
0
0
0
0
0
7.85656e-07
2.0878e-06
1.96123e-06
1.23818e-06
6.30454e-07
2.65834e-07
8.02593e-08
0
0
0
0
0
0
0
0
0
0
0
0
0
0
0
0
0
0
0
0
0
0
9.6263e-07
4.66637e-06
6.37761e-06
5.18235e-06
3.16741e-06
1.9437e-06
1.86041e-06
2.24281e-06
2.48627e-06
3.41885e-06
4.59658e-06
5.33217e-06
6.08044e-06
6.74289e-06
7.47814e-06
8.41292e-06
9.10834e-06
6.38749e-06
3.9014e-06
2.68476e-06
1.67509e-06
9.93614e-07
5.97129e-07
3.94012e-07
2.75927e-07
1.53085e-07
7.79369e-08
1.56175e-07
3.77823e-07
0
0
0
0
0
0
0
0
0
0
0
0
0
1.1184e-06
2.21372e-05
5.08218e-05
0.000102499
0.000166284
0.000151769
0
0
0
0
1.32137e-05
1.18987e-05
7.60317e-06
4.86049e-06
2.64421e-06
1.62464e-07
0
0
0
0
0
0
0
0
0
0
0
0
0
0
0
0
0
0
0
0
0
1.08503e-06
2.85295e-06
4.90101e-06
5.84417e-06
4.08755e-06
0
0
0
0
0
0
0
0
0
0
0
9.94269e-07
1.33122e-06
9.03907e-07
5.42341e-07
4.21064e-07
4.98149e-07
7.46889e-07
1.14991e-06
1.38732e-06
1.00201e-06
5.93793e-07
5.07526e-07
0
0
0
0
0
0
0
0
5.91557e-07
1.74715e-06
1.24324e-06
0
0
0
0
5.16226e-07
7.20874e-07
2.79944e-07
0
9.53271e-08
3.48645e-07
2.01444e-07
5.09526e-08
1.10808e-07
1.33319e-07
1.24493e-07
2.36601e-07
4.13579e-07
5.65237e-07
6.10961e-07
4.36576e-07
1.44567e-07
0
0
2.25488e-07
4.72918e-07
4.84644e-07
2.05138e-07
0
0
0
0
0
1.74458e-07
3.18334e-06
2.68874e-06
1.38006e-06
7.05218e-07
3.7165e-07
1.90426e-07
9.05616e-08
4.75541e-08
2.74431e-08
0
0
0
0
0
0
0
0
0
0
0
0
0
0
0
0
0
0
0
0
0
0
0
0
0
0
0
0
0
2.00354e-07
1.82966e-06
3.50045e-06
4.75973e-06
5.81099e-06
6.90421e-06
7.91151e-06
7.14795e-06
4.16221e-06
3.06951e-06
1.91496e-06
1.20024e-06
7.7627e-07
5.3063e-07
3.95147e-07
2.96988e-07
1.88325e-07
1.888e-07
2.17381e-07
0
0
0
0
0
0
0
0
0
0
0
0
0
0
6.14363e-06
2.55786e-05
5.5223e-05
0.000109455
0.000183003
0.000271735
6.05143e-05
0
0
0
1.01262e-05
1.13389e-05
6.85099e-06
3.83858e-06
1.33311e-06
0
0
0
0
0
0
0
0
0
0
0
0
0
0
0
0
0
0
0
4.41502e-07
8.89972e-07
1.24625e-06
1.35281e-06
9.13038e-07
0
0
0
0
0
0
0
0
0
0
0
0
0
0
7.80045e-07
1.11949e-06
6.4108e-07
2.76717e-07
1.30199e-07
9.91827e-08
1.14453e-07
2.39528e-07
6.11503e-07
7.23964e-07
4.6678e-07
5.30132e-07
4.15006e-07
0
0
0
0
0
0
0
3.01756e-07
1.01107e-06
1.11626e-06
0
0
0
0
3.10935e-07
6.42009e-07
3.44831e-07
0
6.21713e-08
3.06362e-07
2.49958e-07
1.21057e-07
1.58977e-07
2.02383e-07
2.10138e-07
3.27504e-07
6.06612e-07
1.13047e-06
1.90444e-06
2.35215e-06
2.16807e-06
1.84699e-06
1.66169e-06
1.45757e-06
1.06467e-06
4.78532e-07
0
0
0
0
0
0
1.80487e-06
4.29247e-06
2.06578e-06
1.08376e-06
5.78097e-07
2.88361e-07
1.41263e-07
7.76415e-08
5.87884e-08
5.36174e-08
3.76424e-08
7.57736e-09
0
0
0
0
0
0
0
0
0
0
0
0
0
0
0
0
0
0
0
0
0
0
0
0
0
0
0
0
6.60205e-07
2.59803e-06
3.96166e-06
5.13045e-06
6.35586e-06
6.62702e-06
4.13288e-06
3.28448e-06
2.12159e-06
1.32851e-06
8.89672e-07
6.34203e-07
4.83276e-07
3.89516e-07
3.05285e-07
2.34658e-07
2.92672e-07
2.12818e-07
0
0
0
0
0
0
0
0
0
0
0
0
0
0
8.4609e-06
2.73425e-05
6.03236e-05
0.000119617
0.000187019
0.000244228
0.0002935
0
0
0
5.49383e-06
1.03666e-05
6.03896e-06
2.92004e-06
2.52453e-07
0
0
0
0
0
0
0
0
0
0
0
0
0
0
0
0
7.37718e-09
5.49552e-07
9.82711e-07
1.16982e-06
1.10176e-06
7.27282e-07
6.80578e-08
0
0
0
0
0
0
0
0
0
0
0
0
0
0
0
1.54247e-06
1.22722e-06
5.06721e-07
1.42019e-07
3.9979e-08
3.08046e-08
3.40193e-08
3.74979e-08
1.06637e-07
3.52216e-07
3.47715e-07
2.78732e-07
4.9482e-07
1.93302e-07
0
0
0
0
0
0
1.57891e-07
5.57396e-07
7.45303e-07
2.85391e-08
0
0
0
1.99815e-07
5.64788e-07
3.80955e-07
6.11393e-08
6.46968e-08
2.66491e-07
2.75549e-07
1.76208e-07
1.85953e-07
2.29705e-07
2.57822e-07
4.1151e-07
8.73888e-07
1.93317e-06
3.33434e-06
3.66683e-06
3.05351e-06
2.42235e-06
1.78529e-06
9.71416e-07
1.61131e-07
0
0
0
0
0
0
0
4.25789e-06
3.97847e-06
1.86929e-06
9.15418e-07
4.291e-07
1.97716e-07
1.0327e-07
6.71291e-08
5.90375e-08
5.6493e-08
4.18914e-08
2.1556e-08
9.6882e-09
0
0
0
0
0
0
0
0
0
0
0
0
0
0
0
0
0
0
0
0
0
0
0
0
0
0
0
1.37352e-06
2.73346e-06
3.57078e-06
4.41038e-06
4.89658e-06
3.94261e-06
3.25338e-06
2.18143e-06
1.36105e-06
9.09289e-07
6.83141e-07
5.43646e-07
4.39364e-07
3.76426e-07
3.19787e-07
3.00233e-07
3.64667e-07
1.42035e-07
0
0
0
0
0
0
0
0
0
0
7.19789e-09
0
0
0
9.54168e-06
2.78406e-05
6.59333e-05
0.000134938
0.000189675
0.000208219
0.000227804
0.000199059
0
0
0
9.11738e-06
5.13946e-06
2.09115e-06
0
0
0
0
0
0
0
0
0
0
0
0
0
0
0
0
8.07791e-08
5.94505e-07
1.17971e-06
1.44973e-06
1.3103e-06
9.07183e-07
3.40039e-07
0
0
0
0
0
0
0
0
0
0
0
0
0
0
0
9.08374e-07
1.9442e-06
1.15541e-06
3.8526e-07
7.38994e-08
2.56214e-09
4.80527e-09
1.71655e-08
1.90206e-08
2.07404e-08
8.18806e-08
2.96492e-07
3.54195e-07
4.90396e-07
5.07671e-07
0
0
0
0
0
0
3.02598e-08
2.53287e-07
3.79126e-07
9.16196e-08
0
0
0
8.57375e-08
4.19287e-07
3.29394e-07
8.05038e-08
4.13759e-08
1.96962e-07
2.44898e-07
1.79149e-07
1.68717e-07
2.00254e-07
2.43191e-07
4.45781e-07
1.12965e-06
2.78056e-06
4.58056e-06
4.43777e-06
3.29855e-06
2.07928e-06
7.64582e-07
0
0
0
1.99018e-07
3.01945e-07
0
0
0
0
2.41264e-06
1.85235e-06
9.71566e-07
5.27796e-07
2.8848e-07
1.57317e-07
8.9878e-08
5.96619e-08
5.5235e-08
5.54419e-08
3.9389e-08
1.5549e-08
6.11905e-09
1.63915e-09
0
0
0
0
0
0
0
0
0
0
0
0
0
0
0
0
0
0
0
0
0
0
0
0
0
6.92021e-07
1.9063e-06
2.35268e-06
2.24245e-06
2.47686e-06
3.64974e-06
3.14137e-06
2.13578e-06
1.32598e-06
8.52837e-07
6.52493e-07
5.59973e-07
4.7827e-07
4.15606e-07
3.90873e-07
3.63642e-07
3.67068e-07
3.92323e-07
2.68658e-08
0
0
0
0
0
0
0
0
0
0
3.90192e-06
3.01098e-07
0
0
9.79946e-06
2.7312e-05
7.07859e-05
0.000153062
0.00018732
0.000176591
0.000173405
0.000192095
5.41502e-05
0
0
7.71946e-06
4.17917e-06
1.34242e-06
0
0
0
0
0
0
0
0
0
0
0
0
0
0
0
0
0
5.17325e-07
1.04875e-06
1.03934e-06
7.07223e-07
3.56048e-07
3.42707e-08
0
0
0
0
0
0
0
0
0
0
6.27578e-08
1.23007e-06
7.00069e-07
0
3.01816e-07
1.89403e-06
1.82694e-06
9.35826e-07
3.23339e-07
7.83646e-08
2.06832e-08
1.4719e-08
1.91532e-08
2.35632e-08
2.03206e-08
2.35752e-08
8.91935e-08
2.73899e-07
4.38959e-07
6.16963e-07
3.29644e-07
0
0
2.54935e-08
0
0
0
5.4643e-08
1.19649e-07
0
0
0
0
0
2.57643e-07
2.11797e-07
2.36567e-08
0
8.27835e-08
1.46627e-07
1.08478e-07
8.62443e-08
1.02689e-07
1.60411e-07
4.37751e-07
1.41758e-06
3.75053e-06
6.11353e-06
5.335e-06
2.98568e-06
7.95896e-07
0
0
4.29463e-07
6.40772e-07
2.55156e-07
0
0
0
0
0
1.10084e-06
8.29354e-07
5.80061e-07
4.04367e-07
2.59605e-07
1.48111e-07
7.95586e-08
4.91615e-08
4.86579e-08
5.70942e-08
4.58715e-08
1.90072e-08
1.81252e-09
0
0
0
0
0
0
0
0
0
0
0
0
4.0584e-06
5.19252e-07
0
0
0
0
0
0
0
0
0
0
0
1.75373e-09
1.00453e-06
1.44387e-06
1.09463e-06
2.39281e-06
3.29807e-06
2.72401e-06
1.8898e-06
1.19172e-06
7.55777e-07
5.61725e-07
5.14686e-07
4.88498e-07