/*--------------------------------*- C++ -*----------------------------------*\
  =========                 |
  \\      /  F ield         | OpenFOAM: The Open Source CFD Toolbox
   \\    /   O peration     | Website:  https://openfoam.org
    \\  /    A nd           | Version:  6
     \\/     M anipulation  |
\*---------------------------------------------------------------------------*/
FoamFile
{
    version     2.0;
    format      ascii;
    class       volScalarField;
    location    "0.1";
    object      p;
}
// * * * * * * * * * * * * * * * * * * * * * * * * * * * * * * * * * * * * * //

dimensions      [0 2 -2 0 0 0 0];

internalField   nonuniform List<scalar> 
12225
(
-358.648
-362.416
-365.647
-367.789
-368.962
-369.395
-369.277
-368.693
-367.74
-366.537
-365.167
-363.656
-361.977
-360.099
-358.022
-355.716
-353.146
-350.128
-358.534
-362.476
-365.698
-367.843
-369.018
-369.44
-369.307
-368.72
-367.773
-366.576
-365.207
-363.695
-362.019
-360.149
-358.082
-355.807
-353.29
-350.488
-357.657
-362.564
-365.824
-367.945
-369.107
-369.513
-369.367
-368.774
-367.835
-366.653
-365.292
-363.776
-362.094
-360.231
-358.19
-355.976
-353.578
-351.016
-357.174
-362.701
-366.061
-368.136
-369.251
-369.634
-369.479
-368.884
-367.947
-366.763
-365.393
-363.869
-362.19
-360.352
-358.36
-356.226
-353.96
-351.619
-357.241
-363.013
-366.367
-368.392
-369.474
-369.83
-369.647
-369.035
-368.094
-366.908
-365.536
-364.01
-362.343
-360.534
-358.594
-356.544
-354.414
-352.27
-358.942
-363.606
-366.782
-368.721
-369.764
-370.097
-369.888
-369.253
-368.298
-367.107
-365.731
-364.203
-362.542
-360.76
-358.874
-356.913
-354.915
-352.941
-360.849
-364.321
-367.324
-369.198
-370.169
-370.444
-370.196
-369.535
-368.56
-367.354
-365.97
-364.445
-362.801
-361.054
-359.226
-357.35
-355.468
-353.637
-360.024
-365.124
-368.027
-369.78
-370.68
-370.894
-370.586
-369.881
-368.883
-367.665
-366.275
-364.75
-363.119
-361.407
-359.641
-357.852
-356.08
-354.377
-362.229
-366.159
-368.882
-370.562
-371.367
-371.492
-371.109
-370.346
-369.305
-368.059
-366.656
-365.131
-363.513
-361.831
-360.113
-358.394
-356.712
-355.114
-364.805
-367.5
-369.986
-371.459
-372.129
-372.17
-371.721
-370.903
-369.817
-368.536
-367.108
-365.57
-363.96
-362.31
-360.648
-359.004
-357.412
-355.909
-365.506
-368.791
-371.253
-372.629
-373.167
-373.059
-372.474
-371.554
-370.406
-369.093
-367.652
-366.115
-364.517
-362.891
-361.266
-359.67
-358.135
-356.693
-365.543
-370.454
-372.778
-373.94
-374.277
-374.016
-373.322
-372.314
-371.091
-369.717
-368.228
-366.662
-365.057
-363.447
-361.855
-360.305
-358.824
-357.434
-366.623
-372.316
-374.533
-375.42
-375.548
-375.131
-374.295
-373.163
-371.851
-370.423
-368.905
-367.325
-365.716
-364.107
-362.524
-360.993
-359.538
-358.178
-374.863
-375.485
-376.957
-377.467
-377.286
-376.6
-375.552
-374.271
-372.853
-371.337
-369.745
-368.116
-366.488
-364.887
-363.326
-361.82
-360.386
-359.042
-374.951
-379.128
-380.368
-380.274
-379.625
-378.606
-377.276
-375.76
-374.171
-372.546
-370.885
-369.2
-367.522
-365.876
-364.283
-362.763
-361.332
-359.997
-381.101
-384.943
-385.134
-384.057
-382.719
-381.241
-379.587
-377.817
-376.002
-374.169
-372.335
-370.534
-368.794
-367.124
-365.52
-363.983
-362.522
-361.142
-400.283
-394.294
-391.32
-389.097
-386.889
-384.674
-382.442
-380.239
-378.129
-376.103
-374.13
-372.209
-370.356
-368.58
-366.886
-365.281
-363.77
-362.356
-411.108
-403.79
-398.913
-395.331
-392
-388.975
-386.195
-383.565
-381.071
-378.701
-376.441
-374.299
-372.282
-370.381
-368.581
-366.877
-365.265
-363.741
-412.165
-410.616
-406.503
-402.021
-397.815
-393.962
-390.446
-387.233
-384.294
-381.585
-379.063
-376.705
-374.499
-372.427
-370.476
-368.639
-366.912
-365.289
-432.778
-422.866
-414.878
-408.416
-403.039
-398.358
-394.22
-390.529
-387.197
-384.141
-381.314
-378.707
-376.304
-374.075
-371.994
-370.046
-368.22
-366.505
-448.981
-431.179
-420.137
-412.396
-406.289
-401.083
-396.533
-392.536
-388.994
-385.791
-382.847
-380.131
-377.624
-375.292
-373.111
-371.069
-369.156
-367.362
-447.973
-432.321
-422.086
-414.33
-408.131
-402.875
-398.252
-394.131
-390.425
-387.048
-383.946
-381.1
-378.489
-376.079
-373.838
-371.745
-369.786
-367.951
-438.308
-430.642
-422.479
-415.45
-409.404
-404.083
-399.318
-395.073
-391.299
-387.894
-384.77
-381.886
-379.22
-376.748
-374.448
-372.3
-370.292
-368.41
-433.641
-429.067
-422.228
-415.743
-409.931
-404.747
-400.066
-395.828
-391.989
-388.493
-385.291
-382.351
-379.647
-377.149
-374.827
-372.657
-370.627
-368.724
-436.407
-428.995
-422.182
-415.98
-410.329
-405.176
-400.496
-396.255
-392.409
-388.905
-385.689
-382.722
-379.978
-377.437
-375.078
-372.883
-370.837
-368.922
-438.213
-428.83
-422.062
-416.054
-410.548
-405.448
-400.781
-396.545
-392.692
-389.176
-385.949
-382.975
-380.226
-377.675
-375.3
-373.085
-371.017
-369.08
-436.805
-428.022
-421.78
-416.057
-410.671
-405.616
-400.966
-396.734
-392.875
-389.341
-386.094
-383.104
-380.342
-377.779
-375.394
-373.171
-371.095
-369.153
-431.232
-427.019
-421.524
-416.01
-410.729
-405.723
-401.08
-396.844
-392.983
-389.448
-386.198
-383.199
-380.426
-377.854
-375.463
-373.236
-371.155
-369.206
-428.721
-426.322
-421.359
-415.989
-410.736
-405.737
-401.108
-396.887
-393.036
-389.504
-386.257
-383.262
-380.489
-377.912
-375.513
-373.275
-371.184
-369.224
-426.719
-425.892
-421.242
-415.978
-410.767
-405.782
-401.142
-396.904
-393.044
-389.512
-386.268
-383.275
-380.502
-377.925
-375.523
-373.282
-371.187
-369.222
-332.771
-332.785
-332.8
-332.782
-332.691
-332.516
-332.275
-331.998
-331.711
-331.426
-331.149
-330.877
-330.602
-330.315
-330.008
-329.676
-329.315
-328.921
-328.495
-328.034
-327.541
-327.018
-326.473
-325.913
-325.345
-324.797
-324.273
-323.721
-323.119
-322.472
-321.79
-321.1
-320.406
-319.711
-319.026
-318.346
-317.685
-317.076
-316.535
-316.043
-315.556
-315.038
-314.498
-313.953
-313.407
-312.87
-312.338
-311.792
-311.223
-310.629
-310.002
-309.329
-308.604
-307.84
-307.07
-306.345
-305.723
-305.24
-304.876
-304.655
-304.591
-304.481
-304.124
-303.609
-303.38
-303.635
-304.243
-305.031
-305.938
-306.834
-307.692
-308.498
-309.202
-309.765
-310.145
-310.297
-310.181
-309.757
-308.986
-307.84
-306.304
-304.378
-302.077
-299.423
-296.455
-293.232
-289.818
-286.282
-282.699
-279.136
-275.658
-272.32
-269.175
-266.277
-263.694
-261.535
-259.998
-259.445
-260.367
-263.062
-267.047
-270.754
-271.951
-269.236
-263.26
-256.281
-249.709
-243.14
-242.349
-250.69
-261.104
-269.44
-275.892
-279.771
-281.683
-281.785
-280.361
-277.64
-273.805
-269.04
-263.518
-257.441
-251.02
-244.464
-237.938
-231.511
-225.128
-218.637
-211.861
-204.705
-197.237
-189.733
-182.622
-176.332
-171.146
-167.166
-164.316
-162.381
-161.074
-160.103
-159.256
-158.435
-157.637
-156.901
-156.253
-155.683
-155.155
-154.635
-154.107
-153.587
-153.117
-152.75
-152.523
-152.434
-152.418
-152.355
-152.086
-151.431
-150.207
-148.351
-145.908
-143.021
-139.789
-136.349
-132.895
-129.102
-126.192
-126.59
-129.216
-130.623
-130.429
-129.708
-128.309
-126.236
-123.649
-120.55
-117.16
-113.804
-110.631
-107.695
-333.066
-333.091
-333.121
-333.107
-333.001
-332.802
-332.539
-332.243
-331.941
-331.646
-331.361
-331.08
-330.796
-330.498
-330.181
-329.839
-329.467
-329.063
-328.627
-328.158
-327.659
-327.132
-326.579
-326.01
-325.432
-324.874
-324.354
-323.798
-323.137
-322.409
-321.721
-321.094
-320.446
-319.756
-319.065
-318.379
-317.718
-317.133
-316.612
-316.091
-315.55
-315.006
-314.474
-313.958
-313.444
-312.911
-312.367
-311.823
-311.273
-310.702
-310.091
-309.428
-308.707
-307.933
-307.129
-306.332
-305.608
-305.028
-304.65
-304.488
-304.479
-304.482
-304.319
-304.028
-303.966
-304.316
-304.869
-305.608
-306.468
-307.329
-308.188
-309.006
-309.733
-310.325
-310.737
-310.923
-310.832
-310.421
-309.649
-308.486
-306.916
-304.938
-302.568
-299.843
-296.811
-293.527
-290.059
-286.477
-282.855
-279.262
-275.763
-272.416
-269.273
-266.391
-263.836
-261.713
-260.223
-259.742
-260.848
-263.996
-268.751
-273.293
-275.053
-272.461
-265.977
-257.714
-251.467
-248.271
-250.321
-258.691
-266.507
-273.185
-278.288
-281.369
-282.872
-282.657
-281.125
-278.287
-274.394
-269.561
-263.984
-257.852
-251.381
-244.786
-238.242
-231.838
-225.528
-219.157
-212.521
-205.482
-198.068
-190.539
-183.346
-176.95
-171.659
-167.581
-164.653
-162.667
-161.323
-160.321
-159.445
-158.596
-157.775
-157.022
-156.365
-155.794
-155.27
-154.755
-154.231
-153.714
-153.246
-152.882
-152.662
-152.584
-152.579
-152.523
-152.253
-151.6
-150.432
-148.669
-146.287
-143.392
-140.198
-136.749
-133.408
-130.056
-127.235
-127.518
-129.734
-130.741
-130.573
-129.931
-128.468
-126.322
-123.732
-120.607
-117.173
-113.796
-110.612
-107.657
-333.497
-333.515
-333.538
-333.515
-333.403
-333.196
-332.922
-332.619
-332.312
-332.012
-331.719
-331.428
-331.13
-330.818
-330.485
-330.127
-329.739
-329.32
-328.867
-328.384
-327.869
-327.328
-326.763
-326.18
-325.585
-324.98
-324.367
-323.723
-323.033
-322.357
-321.719
-321.054
-320.367
-319.7
-319.035
-318.359
-317.697
-317.092
-316.549
-316.027
-315.497
-314.96
-314.433
-313.925
-313.436
-312.953
-312.466
-311.969
-311.462
-310.929
-310.342
-309.676
-308.918
-308.074
-307.182
-306.286
-305.44
-304.728
-304.331
-304.307
-304.506
-304.765
-304.936
-305.002
-305.178
-305.545
-306.044
-306.708
-307.491
-308.329
-309.187
-310.022
-310.783
-311.416
-311.87
-312.093
-312.032
-311.634
-310.857
-309.666
-308.046
-305.994
-303.53
-300.694
-297.539
-294.131
-290.544
-286.856
-283.144
-279.481
-275.931
-272.553
-269.404
-266.538
-264.022
-261.954
-260.519
-260.1
-261.361
-264.982
-270.696
-276.446
-279.177
-277.105
-270.774
-263.079
-257.961
-257.941
-261.963
-267.923
-273.107
-277.91
-281.531
-283.802
-284.728
-284.196
-282.433
-279.442
-275.426
-270.481
-264.798
-258.557
-251.986
-245.312
-238.736
-232.374
-226.209
-220.081
-213.74
-206.967
-199.706
-192.172
-184.847
-178.264
-172.774
-168.51
-165.433
-163.338
-161.911
-160.831
-159.877
-158.957
-158.079
-157.29
-156.614
-156.03
-155.494
-154.969
-154.439
-153.923
-153.465
-153.12
-152.93
-152.895
-152.946
-152.947
-152.725
-152.104
-150.942
-149.158
-146.766
-143.871
-140.714
-137.402
-134.256
-131.458
-129.209
-129.055
-130.403
-131.182
-131.029
-130.144
-128.486
-126.356
-123.828
-120.667
-117.175
-113.773
-110.574
-107.6
-333.917
-333.918
-333.919
-333.879
-333.769
-333.579
-333.326
-333.044
-332.754
-332.465
-332.174
-331.878
-331.57
-331.244
-330.894
-330.516
-330.105
-329.661
-329.182
-328.67
-328.126
-327.553
-326.956
-326.337
-325.702
-325.05
-324.387
-323.716
-323.033
-322.347
-321.644
-320.922
-320.222
-319.55
-318.883
-318.212
-317.56
-316.965
-316.421
-315.898
-315.382
-314.881
-314.406
-313.958
-313.525
-313.093
-312.661
-312.243
-311.835
-311.4
-310.874
-310.21
-309.405
-308.471
-307.449
-306.422
-305.483
-304.769
-304.475
-304.584
-304.905
-305.324
-305.746
-306.1
-306.461
-306.888
-307.416
-308.088
-308.879
-309.746
-310.645
-311.528
-312.348
-313.047
-313.566
-313.842
-313.816
-313.431
-312.636
-311.395
-309.689
-307.522
-304.918
-301.919
-298.587
-294.998
-291.235
-287.385
-283.529
-279.745
-276.099
-272.65
-269.453
-266.56
-264.032
-261.955
-260.476
-259.923
-260.953
-264.377
-270.155
-276.377
-280.039
-279.252
-274.608
-269.103
-266.357
-267.643
-271.161
-275.125
-278.922
-282.413
-285.023
-286.627
-287.021
-286.169
-284.139
-280.969
-276.796
-271.709
-265.881
-259.488
-252.77
-245.972
-239.327
-232.995
-226.998
-221.187
-215.267
-208.913
-201.938
-194.465
-187
-180.18
-174.432
-169.927
-166.642
-164.383
-162.823
-161.623
-160.552
-159.525
-158.564
-157.72
-157.009
-156.396
-155.831
-155.276
-154.725
-154.203
-153.759
-153.45
-153.317
-153.355
-153.495
-153.612
-153.535
-153.041
-151.909
-150.055
-147.56
-144.578
-141.388
-138.195
-135.25
-132.828
-130.999
-130.43
-131.002
-131.465
-131.118
-130.008
-128.349
-126.312
-123.728
-120.527
-117.094
-113.735
-110.533
-107.536
-334.33
-334.309
-334.27
-334.21
-334.115
-333.969
-333.771
-333.539
-333.29
-333.031
-332.76
-332.472
-332.161
-331.825
-331.457
-331.054
-330.614
-330.134
-329.615
-329.059
-328.468
-327.846
-327.197
-326.526
-325.839
-325.14
-324.436
-323.73
-323.015
-322.293
-321.557
-320.8
-320.041
-319.314
-318.635
-317.987
-317.358
-316.774
-316.24
-315.734
-315.246
-314.788
-314.366
-313.977
-313.619
-313.284
-312.987
-312.761
-312.585
-312.366
-311.997
-311.385
-310.509
-309.435
-308.264
-307.125
-306.152
-305.521
-305.37
-305.598
-305.956
-306.339
-306.736
-307.165
-307.667
-308.246
-308.912
-309.691
-310.57
-311.523
-312.511
-313.489
-314.408
-315.209
-315.827
-316.191
-316.229
-315.875
-315.071
-313.775
-311.967
-309.648
-306.849
-303.62
-300.037
-296.188
-292.173
-288.089
-284.025
-280.061
-276.264
-272.688
-269.38
-266.386
-263.753
-261.539
-259.836
-258.857
-259.109
-261.316
-265.607
-270.662
-274.285
-275.007
-273.367
-271.727
-272.051
-274.196
-277.177
-280.414
-283.632
-286.396
-288.435
-289.548
-289.529
-288.38
-286.1
-282.749
-278.419
-273.189
-267.205
-260.637
-253.73
-246.755
-239.981
-233.615
-227.732
-222.224
-216.775
-210.953
-204.406
-197.104
-189.536
-182.472
-176.463
-171.71
-168.187
-165.716
-163.979
-162.625
-161.414
-160.264
-159.206
-158.296
-157.537
-156.883
-156.275
-155.681
-155.104
-154.577
-154.153
-153.889
-153.825
-153.956
-154.211
-154.479
-154.587
-154.293
-153.345
-151.569
-148.976
-145.77
-142.373
-139.138
-136.287
-134.034
-132.345
-131.479
-131.514
-131.578
-130.95
-129.704
-128.06
-125.984
-123.384
-120.323
-116.98
-113.628
-110.447
-107.47
-334.824
-334.791
-334.726
-334.658
-334.585
-334.486
-334.35
-334.182
-333.992
-333.781
-333.544
-333.274
-332.968
-332.62
-332.229
-331.791
-331.305
-330.771
-330.192
-329.57
-328.909
-328.217
-327.499
-326.762
-326.012
-325.254
-324.495
-323.737
-322.978
-322.219
-321.446
-320.646
-319.834
-319.056
-318.355
-317.713
-317.095
-316.511
-315.973
-315.477
-315.022
-314.616
-314.262
-313.961
-313.717
-313.545
-313.506
-313.623
-313.783
-313.799
-313.538
-312.958
-312.057
-310.891
-309.619
-308.423
-307.463
-306.917
-306.833
-307.044
-307.351
-307.68
-308.032
-308.47
-309.055
-309.775
-310.607
-311.547
-312.577
-313.671
-314.802
-315.932
-317.01
-317.971
-318.739
-319.233
-319.369
-319.067
-318.258
-316.892
-314.946
-312.423
-309.359
-305.818
-301.892
-297.692
-293.336
-288.936
-284.594
-280.391
-276.389
-272.634
-269.157
-265.987
-263.149
-260.67
-258.581
-256.972
-256.124
-256.524
-258.417
-261.238
-263.933
-266.052
-268.097
-270.899
-274.329
-277.657
-280.872
-284.172
-287.217
-289.666
-291.425
-292.226
-291.926
-290.545
-288.076
-284.588
-280.148
-274.822
-268.721
-262.002
-254.907
-247.731
-240.778
-234.306
-228.44
-223.134
-218.098
-212.829
-206.806
-199.798
-192.21
-184.935
-178.697
-173.73
-169.974
-167.265
-165.317
-163.784
-162.419
-161.14
-159.984
-159.002
-158.186
-157.476
-156.808
-156.161
-155.549
-155.016
-154.62
-154.414
-154.435
-154.681
-155.071
-155.498
-155.829
-155.797
-155.091
-153.492
-150.954
-147.575
-143.84
-140.351
-137.417
-135.16
-133.475
-132.44
-132.096
-131.766
-130.872
-129.496
-127.77
-125.633
-123.072
-120.105
-116.835
-113.537
-110.38
-107.408
-335.494
-335.462
-335.405
-335.347
-335.297
-335.246
-335.181
-335.097
-334.986
-334.839
-334.646
-334.398
-334.091
-333.721
-333.289
-332.793
-332.236
-331.619
-330.947
-330.227
-329.465
-328.672
-327.856
-327.028
-326.195
-325.364
-324.539
-323.723
-322.915
-322.11
-321.288
-320.439
-319.575
-318.759
-318.043
-317.386
-316.749
-316.144
-315.6
-315.124
-314.709
-314.356
-314.069
-313.868
-313.775
-313.849
-314.165
-314.652
-315.076
-315.227
-315.015
-314.436
-313.516
-312.334
-311.073
-309.913
-309.021
-308.536
-308.429
-308.544
-308.779
-309.113
-309.531
-310.067
-310.76
-311.605
-312.587
-313.695
-314.91
-316.207
-317.554
-318.911
-320.225
-321.419
-322.402
-323.077
-323.343
-323.102
-322.272
-320.793
-318.642
-315.83
-312.404
-308.447
-304.072
-299.416
-294.624
-289.829
-285.143
-280.65
-276.404
-272.434
-268.754
-265.364
-262.264
-259.451
-256.915
-254.66
-252.778
-251.519
-251.215
-252.065
-254.116
-257.633
-262.82
-268.995
-274.664
-279.105
-282.934
-286.585
-289.676
-292.049
-293.697
-294.341
-293.88
-292.35
-289.761
-286.191
-281.704
-276.352
-270.213
-263.42
-256.202
-248.868
-241.754
-235.158
-229.245
-224.02
-219.261
-214.462
-208.973
-202.345
-194.84
-187.421
-181
-175.866
-171.912
-168.971
-166.802
-165.082
-163.564
-162.162
-160.915
-159.867
-158.986
-158.193
-157.432
-156.7
-156.036
-155.495
-155.138
-155.01
-155.143
-155.54
-156.123
-156.771
-157.342
-157.565
-157.102
-155.716
-153.325
-149.953
-145.915
-141.991
-138.757
-136.347
-134.605
-133.445
-132.779
-132.09
-130.962
-129.44
-127.601
-125.416
-122.862
-119.948
-116.763
-113.511
-110.354
-107.373
-336.349
-336.321
-336.3
-336.295
-336.322
-336.377
-336.436
-336.473
-336.463
-336.386
-336.23
-335.989
-335.659
-335.241
-334.736
-334.149
-333.483
-332.745
-331.941
-331.082
-330.178
-329.245
-328.296
-327.346
-326.405
-325.481
-324.577
-323.693
-322.825
-321.959
-321.076
-320.164
-319.254
-318.42
-317.679
-316.978
-316.299
-315.675
-315.135
-314.675
-314.284
-313.963
-313.735
-313.637
-313.72
-314.087
-314.757
-315.502
-316.048
-316.242
-316.043
-315.467
-314.553
-313.414
-312.238
-311.185
-310.408
-309.989
-309.865
-309.938
-310.172
-310.566
-311.109
-311.807
-312.668
-313.684
-314.847
-316.153
-317.595
-319.155
-320.794
-322.461
-324.088
-325.582
-326.835
-327.727
-328.135
-327.947
-327.068
-325.437
-323.029
-319.858
-315.983
-311.503
-306.562
-301.332
-295.993
-290.707
-285.604
-280.769
-276.246
-272.045
-268.151
-264.538
-261.175
-258.034
-255.09
-252.317
-249.719
-247.424
-245.794
-245.5
-247.417
-252.127
-259.288
-267.296
-274.175
-279.392
-283.807
-287.821
-291.066
-293.481
-295.1
-295.69
-295.161
-293.553
-290.906
-287.305
-282.822
-277.505
-271.404
-264.622
-257.377
-249.979
-242.778
-236.107
-230.161
-224.963
-220.36
-215.898
-210.858
-204.617
-197.275
-189.805
-183.263
-178.011
-173.905
-170.765
-168.392
-166.498
-164.838
-163.327
-162.002
-160.888
-159.922
-159.01
-158.114
-157.27
-156.547
-156.016
-155.734
-155.723
-155.997
-156.573
-157.396
-158.341
-159.23
-159.757
-159.57
-158.389
-156.102
-152.798
-148.595
-144.174
-140.438
-137.715
-135.819
-134.491
-133.519
-132.521
-131.194
-129.526
-127.578
-125.332
-122.751
-119.862
-116.747
-113.544
-110.385
-107.377
-337.18
-337.202
-337.308
-337.503
-337.757
-338.028
-338.273
-338.451
-338.534
-338.505
-338.357
-338.089
-337.703
-337.202
-336.591
-335.877
-335.067
-334.17
-333.196
-332.159
-331.074
-329.961
-328.841
-327.736
-326.66
-325.622
-324.623
-323.659
-322.715
-321.771
-320.805
-319.825
-318.885
-318.031
-317.237
-316.472
-315.756
-315.125
-314.584
-314.118
-313.721
-313.407
-313.212
-313.189
-313.432
-314.059
-314.967
-315.823
-316.404
-316.615
-316.433
-315.87
-314.99
-313.937
-312.894
-312.011
-311.409
-311.111
-311.055
-311.196
-311.529
-312.048
-312.74
-313.614
-314.672
-315.908
-317.315
-318.891
-320.634
-322.53
-324.539
-326.597
-328.619
-330.489
-332.076
-333.235
-333.826
-333.721
-332.816
-331.039
-328.353
-324.767
-320.349
-315.225
-309.574
-303.615
-297.579
-291.675
-286.059
-280.818
-275.982
-271.536
-267.434
-263.618
-260.028
-256.619
-253.367
-250.264
-247.317
-244.627
-242.568
-241.937
-243.882
-249.142
-257.075
-265.748
-273.178
-278.913
-283.753
-288.047
-291.484
-293.991
-295.613
-296.192
-295.647
-294.018
-291.368
-287.789
-283.357
-278.121
-272.116
-265.419
-258.236
-250.881
-243.69
-237.015
-231.096
-225.96
-221.466
-217.214
-212.481
-206.558
-199.418
-191.993
-185.409
-180.092
-175.882
-172.584
-170.036
-167.99
-166.208
-164.602
-163.196
-161.992
-160.901
-159.833
-158.79
-157.853
-157.1
-156.598
-156.424
-156.585
-157.035
-157.789
-158.85
-160.166
-161.5
-162.408
-162.589
-161.727
-159.546
-156.177
-151.854
-146.966
-142.574
-139.346
-137.15
-135.58
-134.324
-133.068
-131.557
-129.746
-127.682
-125.351
-122.723
-119.834
-116.758
-113.599
-110.449
-107.417
-337.829
-338.045
-338.502
-339.094
-339.682
-340.196
-340.603
-340.878
-341.007
-340.986
-340.814
-340.495
-340.033
-339.436
-338.71
-337.864
-336.905
-335.84
-334.681
-333.445
-332.155
-330.835
-329.518
-328.233
-327
-325.828
-324.717
-323.652
-322.603
-321.547
-320.484
-319.452
-318.484
-317.57
-316.697
-315.876
-315.139
-314.498
-313.936
-313.439
-313.013
-312.679
-312.479
-312.474
-312.8
-313.537
-314.479
-315.317
-315.894
-316.118
-315.959
-315.446
-314.668
-313.781
-312.955
-312.33
-311.981
-311.884
-311.991
-312.29
-312.793
-313.492
-314.378
-315.458
-316.745
-318.246
-319.96
-321.887
-324.025
-326.353
-328.829
-331.382
-333.908
-336.266
-338.293
-339.814
-340.662
-340.687
-339.764
-337.803
-334.763
-330.664
-325.592
-319.697
-313.194
-306.354
-299.477
-292.832
-286.612
-280.911
-275.737
-271.044
-266.753
-262.776
-259.028
-255.448
-252.016
-248.76
-245.749
-243.112
-241.186
-240.677
-242.614
-247.718
-255.441
-264.011
-271.618
-277.716
-282.837
-287.299
-290.902
-293.524
-295.172
-295.764
-295.246
-293.654
-291.061
-287.559
-283.223
-278.104
-272.24
-265.689
-258.647
-251.441
-244.378
-237.789
-231.964
-226.953
-222.575
-218.444
-213.876
-208.168
-201.23
-193.928
-187.385
-182.065
-177.801
-174.389
-171.7
-169.524
-167.634
-165.935
-164.434
-163.105
-161.852
-160.617
-159.458
-158.481
-157.74
-157.285
-157.216
-157.55
-158.196
-159.135
-160.419
-162.155
-164.119
-165.57
-166.162
-165.759
-163.817
-160.311
-155.752
-150.413
-145.252
-141.313
-138.648
-136.767
-135.242
-133.746
-132.045
-130.086
-127.893
-125.461
-122.771
-119.857
-116.787
-113.652
-110.514
-107.472
-338.848
-339.355
-340.234
-341.14
-341.909
-342.52
-342.975
-343.269
-343.399
-343.364
-343.167
-342.81
-342.3
-341.643
-340.845
-339.908
-338.836
-337.638
-336.325
-334.912
-333.427
-331.902
-330.38
-328.901
-327.496
-326.175
-324.924
-323.711
-322.504
-321.313
-320.168
-319.079
-318.031
-317.02
-316.071
-315.212
-314.453
-313.78
-313.172
-312.625
-312.15
-311.769
-311.519
-311.46
-311.726
-312.344
-313.107
-313.809
-314.325
-314.54
-314.437
-314.063
-313.509
-312.917
-312.436
-312.169
-312.141
-312.308
-312.646
-313.164
-313.885
-314.815
-315.954
-317.305
-318.889
-320.721
-322.807
-325.153
-327.761
-330.609
-333.653
-336.814
-339.96
-342.907
-345.443
-347.352
-348.436
-348.524
-347.487
-345.239
-341.762
-337.093
-331.325
-324.618
-317.206
-309.406
-301.598
-294.135
-287.267
-281.094
-275.593
-270.672
-266.216
-262.122
-258.295
-254.668
-251.215
-247.97
-245.047
-242.64
-241.067
-240.854
-242.718
-247.223
-254.109
-262.077
-269.57
-275.859
-281.123
-285.622
-289.288
-291.993
-293.694
-294.341
-293.902
-292.409
-289.933
-286.561
-282.365
-277.396
-271.707
-265.356
-258.534
-251.579
-244.77
-238.384
-232.731
-227.89
-223.645
-219.579
-215.06
-209.461
-202.703
-195.584
-189.164
-183.9
-179.631
-176.151
-173.357
-171.068
-169.077
-167.284
-165.674
-164.204
-162.789
-161.417
-160.19
-159.212
-158.499
-158.091
-158.108
-158.564
-159.378
-160.567
-162.174
-164.401
-167.213
-169.539
-170.656
-170.662
-168.969
-165.333
-160.413
-154.57
-148.545
-143.695
-140.393
-138.118
-136.301
-134.555
-132.657
-130.538
-128.206
-125.656
-122.883
-119.922
-116.83
-113.695
-110.564
-107.517
-340.806
-341.45
-342.381
-343.244
-343.959
-344.534
-344.971
-345.262
-345.397
-345.368
-345.176
-344.826
-344.321
-343.668
-342.869
-341.922
-340.822
-339.566
-338.159
-336.618
-334.972
-333.268
-331.557
-329.89
-328.295
-326.775
-325.309
-323.869
-322.468
-321.149
-319.903
-318.694
-317.513
-316.4
-315.391
-314.492
-313.687
-312.953
-312.279
-311.666
-311.12
-310.657
-310.299
-310.1
-310.165
-310.498
-310.947
-311.4
-311.777
-311.988
-312.025
-311.918
-311.723
-311.55
-311.498
-311.628
-311.939
-312.403
-313.018
-313.803
-314.791
-316.005
-317.45
-319.133
-321.077
-323.296
-325.8
-328.607
-331.731
-335.161
-338.854
-342.706
-346.53
-350.076
-353.07
-355.263
-356.452
-356.484
-355.253
-352.695
-348.803
-343.619
-337.233
-329.792
-321.52
-312.764
-303.985
-295.658
-288.12
-281.485
-275.69
-270.583
-266
-261.811
-257.936
-254.325
-250.964
-247.869
-245.153
-243.027
-241.769
-241.783
-243.549
-247.409
-253.234
-260.221
-267.21
-273.414
-278.697
-283.17
-286.819
-289.544
-291.28
-291.985
-291.646
-290.291
-287.975
-284.773
-280.75
-275.963
-270.487
-264.401
-257.895
-251.295
-244.847
-238.775
-233.374
-228.737
-224.625
-220.583
-216.024
-210.444
-203.844
-196.96
-190.736
-185.583
-181.352
-177.845
-174.976
-172.592
-170.504
-168.615
-166.896
-165.292
-163.748
-162.288
-161.03
-160.06
-159.364
-158.99
-159.079
-159.615
-160.554
-162.077
-164.268
-167.222
-171.021
-174.571
-176.631
-177.068
-175.392
-171.41
-165.96
-159.498
-152.512
-146.574
-142.46
-139.682
-137.52
-135.506
-133.396
-131.103
-128.611
-125.923
-123.046
-120.016
-116.885
-113.729
-110.594
-107.538
-342.942
-343.453
-344.149
-344.831
-345.462
-346.017
-346.465
-346.779
-346.944
-346.952
-346.804
-346.514
-346.087
-345.522
-344.813
-343.952
-342.926
-341.721
-340.332
-338.764
-337.041
-335.206
-333.317
-331.429
-329.577
-327.765
-325.979
-324.241
-322.623
-321.127
-319.684
-318.28
-316.955
-315.749
-314.67
-313.7
-312.816
-312.002
-311.25
-310.559
-309.927
-309.355
-308.852
-308.459
-308.246
-308.227
-308.325
-308.495
-308.735
-309.009
-309.288
-309.55
-309.783
-310.036
-310.376
-310.855
-311.483
-312.253
-313.17
-314.254
-315.549
-317.087
-318.868
-320.905
-323.224
-325.844
-328.783
-332.079
-335.76
-339.826
-344.222
-348.789
-353.258
-357.299
-360.597
-362.907
-364.06
-363.939
-362.456
-359.556
-355.244
-349.579
-342.668
-334.651
-325.724
-316.206
-306.598
-297.481
-289.309
-282.25
-276.209
-270.972
-266.315
-262.069
-258.147
-254.535
-251.263
-248.378
-245.921
-244.041
-243.06
-243.269
-244.87
-248.064
-252.813
-258.675
-264.864
-270.672
-275.771
-280.102
-283.636
-286.304
-288.04
-288.799
-288.566
-287.356
-285.21
-282.193
-278.371
-273.813
-268.618
-262.884
-256.804
-250.662
-244.654
-238.976
-233.891
-229.474
-225.47
-221.411
-216.749
-211.128
-204.676
-198.07
-192.103
-187.109
-182.95
-179.45
-176.532
-174.065
-171.886
-169.907
-168.087
-166.373
-164.74
-163.239
-161.974
-160.995
-160.281
-159.931
-160.115
-160.748
-161.801
-163.699
-166.731
-170.845
-175.935
-180.918
-184.252
-185.338
-183.559
-178.896
-172.606
-165.281
-157.193
-150.007
-144.909
-141.5
-138.926
-136.615
-134.271
-131.774
-129.098
-126.251
-123.248
-120.131
-116.945
-113.755
-110.602
-107.533
-344.08
-344.417
-344.938
-345.522
-346.122
-346.679
-347.153
-347.522
-347.775
-347.906
-347.914
-347.81
-347.596
-347.267
-346.817
-346.225
-345.455
-344.468
-343.237
-341.755
-340.041
-338.133
-336.078
-333.922
-331.693
-329.421
-327.175
-325.057
-323.101
-321.249
-319.485
-317.862
-316.399
-315.08
-313.883
-312.8
-311.812
-310.906
-310.072
-309.305
-308.588
-307.903
-307.257
-306.682
-306.214
-305.875
-305.679
-305.647
-305.822
-306.232
-306.803
-307.439
-308.049
-308.628
-309.248
-309.991
-310.893
-311.956
-313.174
-314.563
-316.177
-318.045
-320.162
-322.544
-325.229
-328.245
-331.629
-335.438
-339.708
-344.432
-349.513
-354.712
-359.673
-364.006
-367.392
-369.623
-370.57
-370.132
-368.231
-364.849
-360.025
-353.861
-346.504
-338.113
-328.852
-318.979
-308.955
-299.394
-290.831
-283.487
-277.261
-271.915
-267.208
-262.956
-259.047
-255.444
-252.191
-249.389
-247.151
-245.592
-244.818
-244.982
-246.376
-249.107
-253.016
-257.791
-262.962
-268.038
-272.678
-276.699
-280.007
-282.524
-284.182
-284.933
-284.757
-283.664
-281.689
-278.89
-275.332
-271.092
-266.274
-260.992
-255.429
-249.807
-244.275
-239.026
-234.287
-230.08
-226.142
-222.014
-217.207
-211.524
-205.233
-198.946
-193.278
-188.475
-184.414
-180.944
-177.997
-175.462
-173.202
-171.144
-169.241
-167.443
-165.756
-164.25
-162.992
-161.986
-161.223
-160.89
-161.188
-161.941
-163.178
-165.607
-169.734
-175.377
-182.135
-188.847
-193.751
-195.635
-193.601
-187.945
-180.506
-172.014
-162.612
-154.015
-147.771
-143.603
-140.543
-137.892
-135.28
-132.549
-129.66
-126.629
-123.481
-120.259
-117.004
-113.769
-110.59
-107.502
-343.986
-344.23
-344.633
-345.119
-345.653
-346.193
-346.72
-347.213
-347.657
-348.042
-348.363
-348.636
-348.863
-349.02
-349.084
-349.023
-348.782
-348.298
-347.504
-346.345
-344.788
-342.836
-340.522
-337.913
-335.097
-332.189
-329.315
-326.566
-323.962
-321.529
-319.349
-317.466
-315.825
-314.351
-313.005
-311.787
-310.682
-309.677
-308.763
-307.927
-307.144
-306.371
-305.609
-304.898
-304.269
-303.742
-303.372
-303.246
-303.426
-303.974
-304.803
-305.727
-306.6
-307.384
-308.178
-309.109
-310.239
-311.567
-313.063
-314.741
-316.66
-318.845
-321.282
-323.996
-327.041
-330.454
-334.288
-338.609
-343.446
-348.762
-354.398
-360.036
-365.251
-369.631
-372.876
-374.816
-375.352
-374.41
-371.957
-368.026
-362.704
-356.124
-348.46
-339.888
-330.553
-320.663
-310.64
-301.08
-292.506
-285.136
-278.854
-273.43
-268.66
-264.375
-260.473
-256.923
-253.746
-251.019
-248.85
-247.352
-246.653
-246.903
-248.154
-250.362
-253.518
-257.436
-261.723
-266.004
-269.993
-273.503
-276.427
-278.678
-280.174
-280.858
-280.7
-279.7
-277.89
-275.322
-272.063
-268.192
-263.805
-259.017
-253.986
-248.869
-243.796
-238.97
-234.567
-230.529
-226.594
-222.344
-217.377
-211.655
-205.562
-199.624
-194.28
-189.684
-185.736
-182.313
-179.353
-176.764
-174.439
-172.318
-170.351
-168.496
-166.786
-165.294
-164.042
-162.999
-162.185
-161.888
-162.305
-163.163
-164.657
-167.86
-173.412
-180.93
-189.611
-198.202
-204.96
-207.92
-205.532
-198.539
-189.63
-179.693
-168.744
-158.574
-151.042
-146.001
-142.375
-139.333
-136.416
-133.419
-130.288
-127.049
-123.736
-120.392
-117.056
-113.768
-110.556
-107.446
-343.122
-343.285
-343.554
-343.904
-344.335
-344.839
-345.405
-346.022
-346.705
-347.46
-348.277
-349.161
-350.12
-351.126
-352.132
-353.059
-353.793
-354.196
-354.128
-353.477
-352.179
-350.23
-347.673
-344.58
-341.047
-337.207
-333.228
-329.295
-325.589
-322.282
-319.477
-317.161
-315.224
-313.539
-312.029
-310.671
-309.449
-308.345
-307.343
-306.444
-305.621
-304.81
-303.982
-303.192
-302.497
-301.913
-301.49
-301.342
-301.566
-302.196
-303.174
-304.28
-305.32
-306.238
-307.145
-308.214
-309.54
-311.108
-312.865