/*--------------------------------*- C++ -*----------------------------------*\
  =========                 |
  \\      /  F ield         | OpenFOAM: The Open Source CFD Toolbox
   \\    /   O peration     | Website:  https://openfoam.org
    \\  /    A nd           | Version:  6
     \\/     M anipulation  |
\*---------------------------------------------------------------------------*/
FoamFile
{
    version     2.0;
    format      ascii;
    class       volScalarField;
    location    "0.1";
    object      pPrime2Mean;
}
// * * * * * * * * * * * * * * * * * * * * * * * * * * * * * * * * * * * * * //

dimensions      [0 4 -4 0 0 0 0];

internalField   nonuniform List<scalar> 
12225
(
4.34163e+06
4.27081e+06
4.20068e+06
4.13276e+06
4.06728e+06
4.00414e+06
3.9432e+06
3.88433e+06
3.82734e+06
3.77206e+06
3.71827e+06
3.66572e+06
3.61412e+06
3.56307e+06
3.51204e+06
3.46019e+06
3.40602e+06
3.34582e+06
4.34171e+06
4.27086e+06
4.20073e+06
4.13281e+06
4.06733e+06
4.00419e+06
3.94326e+06
3.88439e+06
3.82742e+06
3.77216e+06
3.7184e+06
3.66588e+06
3.61433e+06
3.56337e+06
3.51248e+06
3.46091e+06
3.40739e+06
3.34918e+06
4.34178e+06
4.27097e+06
4.20083e+06
4.13291e+06
4.06743e+06
4.0043e+06
3.94339e+06
3.88454e+06
3.8276e+06
3.77238e+06
3.71867e+06
3.66624e+06
3.6148e+06
3.56402e+06
3.51343e+06
3.46242e+06
3.41009e+06
3.35537e+06
4.34193e+06
4.27115e+06
4.201e+06
4.13307e+06
4.0676e+06
4.00449e+06
3.9436e+06
3.88479e+06
3.8279e+06
3.77274e+06
3.71913e+06
3.66682e+06
3.61557e+06
3.56507e+06
3.51495e+06
3.46477e+06
3.41405e+06
3.36284e+06
4.34221e+06
4.27141e+06
4.20125e+06
4.13332e+06
4.06786e+06
4.00476e+06
3.94391e+06
3.88515e+06
3.82833e+06
3.77327e+06
3.71979e+06
3.66767e+06
3.61668e+06
3.56658e+06
3.51708e+06
3.46792e+06
3.41901e+06
3.37094e+06
4.34274e+06
4.27179e+06
4.20159e+06
4.13365e+06
4.06821e+06
4.00515e+06
3.94434e+06
3.88565e+06
3.82893e+06
3.774e+06
3.72069e+06
3.66882e+06
3.61818e+06
3.56857e+06
3.51983e+06
3.47184e+06
3.42475e+06
3.37934e+06
4.34329e+06
4.27229e+06
4.20204e+06
4.1341e+06
4.06867e+06
4.00565e+06
3.94491e+06
3.88631e+06
3.82971e+06
3.77495e+06
3.72187e+06
3.6703e+06
3.62008e+06
3.57107e+06
3.52318e+06
3.47643e+06
3.43109e+06
3.3879e+06
4.34407e+06
4.27292e+06
4.20263e+06
4.13468e+06
4.06927e+06
4.0063e+06
3.94564e+06
3.88715e+06
3.83071e+06
3.77615e+06
3.72334e+06
3.67214e+06
3.62242e+06
3.57409e+06
3.52712e+06
3.48162e+06
3.43789e+06
3.39654e+06
4.34499e+06
4.27371e+06
4.20336e+06
4.1354e+06
4.07001e+06
4.0071e+06
3.94654e+06
3.8882e+06
3.83194e+06
3.77763e+06
3.72515e+06
3.67437e+06
3.6252e+06
3.5776e+06
3.53159e+06
3.48731e+06
3.44503e+06
3.40522e+06
4.34617e+06
4.27468e+06
4.20426e+06
4.13628e+06
4.07093e+06
4.00809e+06
3.94765e+06
3.88947e+06
3.83343e+06
3.77941e+06
3.7273e+06
3.67699e+06
3.62844e+06
3.58161e+06
3.53656e+06
3.49342e+06
3.45244e+06
3.41393e+06
4.34745e+06
4.27583e+06
4.20534e+06
4.13735e+06
4.07204e+06
4.00929e+06
3.94898e+06
3.89099e+06
3.83521e+06
3.78151e+06
3.72981e+06
3.68003e+06
3.63212e+06
3.58608e+06
3.54196e+06
3.4999e+06
3.46006e+06
3.42265e+06
4.34863e+06
4.27706e+06
4.20652e+06
4.13852e+06
4.07325e+06
4.01059e+06
3.95042e+06
3.89263e+06
3.83711e+06
3.78375e+06
3.73246e+06
3.68318e+06
3.63588e+06
3.59056e+06
3.54727e+06
3.5061e+06
3.46719e+06
3.43065e+06
4.35013e+06
4.27849e+06
4.20788e+06
4.13986e+06
4.07462e+06
4.01206e+06
3.95205e+06
3.89448e+06
3.83923e+06
3.78622e+06
3.73537e+06
3.68661e+06
3.63992e+06
3.59529e+06
3.55278e+06
3.51244e+06
3.47435e+06
3.43858e+06
4.3522e+06
4.2804e+06
4.20968e+06
4.14162e+06
4.07643e+06
4.01399e+06
3.95418e+06
3.89687e+06
3.84198e+06
3.78939e+06
3.73905e+06
3.69089e+06
3.64488e+06
3.60103e+06
3.55935e+06
3.51986e+06
3.4826e+06
3.44758e+06
4.35541e+06
4.28302e+06
4.21206e+06
4.14394e+06
4.07881e+06
4.01651e+06
3.95694e+06
3.89996e+06
3.84548e+06
3.7934e+06
3.74364e+06
3.69616e+06
3.65091e+06
3.60788e+06
3.56705e+06
3.52841e+06
3.49197e+06
3.45769e+06
4.35938e+06
4.28642e+06
4.21517e+06
4.14696e+06
4.08187e+06
4.01976e+06
3.96047e+06
3.90388e+06
3.84988e+06
3.79837e+06
3.74928e+06
3.70253e+06
3.65808e+06
3.61589e+06
3.57591e+06
3.53811e+06
3.50245e+06
3.46887e+06
4.36428e+06
4.29072e+06
4.21912e+06
4.15078e+06
4.08575e+06
4.02384e+06
3.96488e+06
3.90874e+06
3.85528e+06
3.8044e+06
3.75601e+06
3.71003e+06
3.66639e+06
3.62503e+06
3.58587e+06
3.54886e+06
3.51394e+06
3.48101e+06
4.37043e+06
4.296e+06
4.22391e+06
4.15541e+06
4.09044e+06
4.02878e+06
3.9702e+06
3.91454e+06
3.86167e+06
3.81145e+06
3.76378e+06
3.71856e+06
3.67571e+06
3.63513e+06
3.59674e+06
3.56045e+06
3.52618e+06
3.49384e+06
4.37823e+06
4.30192e+06
4.22918e+06
4.16055e+06
4.09572e+06
4.03437e+06
3.97622e+06
3.92109e+06
3.86882e+06
3.81927e+06
3.7723e+06
3.7278e+06
3.68567e+06
3.6458e+06
3.60809e+06
3.57244e+06
3.53874e+06
3.50691e+06
4.37939e+06
4.30457e+06
4.23246e+06
4.16423e+06
4.09977e+06
4.03879e+06
3.98106e+06
3.92637e+06
3.87458e+06
3.82551e+06
3.77905e+06
3.73506e+06
3.69342e+06
3.65403e+06
3.61676e+06
3.58152e+06
3.5482e+06
3.5167e+06
4.38008e+06
4.30586e+06
4.23428e+06
4.16646e+06
4.10235e+06
4.04169e+06
3.98427e+06
3.9299e+06
3.87842e+06
3.82968e+06
3.78354e+06
3.73986e+06
3.69853e+06
3.65942e+06
3.62243e+06
3.58743e+06
3.55433e+06
3.52302e+06
4.37968e+06
4.30638e+06
4.23535e+06
4.16792e+06
4.10412e+06
4.04374e+06
3.98657e+06
3.93245e+06
3.8812e+06
3.83269e+06
3.78678e+06
3.74332e+06
3.7022e+06
3.66329e+06
3.62647e+06
3.59165e+06
3.55869e+06
3.52751e+06
4.37932e+06
4.30658e+06
4.23598e+06
4.16888e+06
4.10534e+06
4.04518e+06
3.9882e+06
3.93426e+06
3.88319e+06
3.83484e+06
3.78909e+06
3.74578e+06
3.7048e+06
3.66603e+06
3.62934e+06
3.59462e+06
3.56177e+06
3.53068e+06
4.3788e+06
4.30659e+06
4.23635e+06
4.1695e+06
4.10617e+06
4.04617e+06
3.98934e+06
3.93553e+06
3.88458e+06
3.83635e+06
3.79071e+06
3.74751e+06
3.70663e+06
3.66795e+06
3.63134e+06
3.5967e+06
3.56392e+06
3.53289e+06
4.37847e+06
4.30653e+06
4.23655e+06
4.16991e+06
4.10672e+06
4.04684e+06
3.99012e+06
3.9364e+06
3.88554e+06
3.83739e+06
3.79183e+06
3.7487e+06
3.70789e+06
3.66927e+06
3.63272e+06
3.59813e+06
3.5654e+06
3.53441e+06
4.3781e+06
4.30644e+06
4.23667e+06
4.17016e+06
4.10708e+06
4.04729e+06
3.99064e+06
3.93698e+06
3.88618e+06
3.83809e+06
3.79257e+06
3.7495e+06
3.70873e+06
3.67015e+06
3.63364e+06
3.59909e+06
3.56638e+06
3.53542e+06
4.37757e+06
4.30633e+06
4.23672e+06
4.17032e+06
4.10731e+06
4.04757e+06
3.99097e+06
3.93736e+06
3.8866e+06
3.83854e+06
3.79306e+06
3.75001e+06
3.70927e+06
3.67072e+06
3.63424e+06
3.5997e+06
3.56702e+06
3.53607e+06
4.37732e+06
4.30625e+06
4.23675e+06
4.17041e+06
4.10745e+06
4.04775e+06
3.99117e+06
3.93759e+06
3.88685e+06
3.83881e+06
3.79335e+06
3.75032e+06
3.7096e+06
3.67106e+06
3.63459e+06
3.60008e+06
3.5674e+06
3.53646e+06
4.37721e+06
4.30621e+06
4.23677e+06
4.17046e+06
4.10752e+06
4.04784e+06
3.99128e+06
3.93771e+06
3.88698e+06
3.83896e+06
3.79351e+06
3.75049e+06
3.70978e+06
3.67125e+06
3.63479e+06
3.60028e+06
3.56761e+06
3.53668e+06
4.37705e+06
4.30619e+06
4.23677e+06
4.17048e+06
4.10755e+06
4.04788e+06
3.99133e+06
3.93776e+06
3.88704e+06
3.83902e+06
3.79357e+06
3.75056e+06
3.70985e+06
3.67133e+06
3.63487e+06
3.60036e+06
3.56769e+06
3.53676e+06
2.82784e+06
2.82762e+06
2.82717e+06
2.82648e+06
2.82555e+06
2.82439e+06
2.82297e+06
2.82131e+06
2.8194e+06
2.81723e+06
2.8148e+06
2.81211e+06
2.80915e+06
2.80593e+06
2.80245e+06
2.79869e+06
2.79466e+06
2.79037e+06
2.7858e+06
2.78096e+06
2.77585e+06
2.77048e+06
2.76484e+06
2.75894e+06
2.75277e+06
2.74635e+06
2.73967e+06
2.73273e+06
2.72554e+06
2.7181e+06
2.71042e+06
2.70249e+06
2.69432e+06
2.68591e+06
2.67728e+06
2.66841e+06
2.65932e+06
2.65001e+06
2.64048e+06
2.63074e+06
2.62079e+06
2.61062e+06
2.60025e+06
2.58967e+06
2.5789e+06
2.56793e+06
2.55676e+06
2.54541e+06
2.53387e+06
2.52214e+06
2.51024e+06
2.49816e+06
2.48592e+06
2.47351e+06
2.46095e+06
2.44822e+06
2.43534e+06
2.4223e+06
2.40913e+06
2.39581e+06
2.38235e+06
2.36875e+06
2.35501e+06
2.34113e+06
2.32711e+06
2.31296e+06
2.29868e+06
2.28426e+06
2.26971e+06
2.25503e+06
2.24023e+06
2.2253e+06
2.21025e+06
2.19509e+06
2.1798e+06
2.16441e+06
2.14892e+06
2.13334e+06
2.11767e+06
2.10191e+06
2.08606e+06
2.07013e+06
2.05411e+06
2.03802e+06
2.02184e+06
2.00559e+06
1.98925e+06
1.97283e+06
1.95634e+06
1.93976e+06
1.92309e+06
1.90634e+06
1.88951e+06
1.87259e+06
1.85558e+06
1.83848e+06
1.8213e+06
1.80404e+06
1.7867e+06
1.76928e+06
1.7518e+06
1.73425e+06
1.71665e+06
1.699e+06
1.68131e+06
1.66357e+06
1.64581e+06
1.628e+06
1.61017e+06
1.59231e+06
1.57442e+06
1.55651e+06
1.53857e+06
1.52061e+06
1.50261e+06
1.48458e+06
1.46651e+06
1.44839e+06
1.43024e+06
1.41203e+06
1.39379e+06
1.37551e+06
1.35719e+06
1.33884e+06
1.32047e+06
1.30208e+06
1.28367e+06
1.26526e+06
1.24685e+06
1.22844e+06
1.21003e+06
1.19163e+06
1.17324e+06
1.15485e+06
1.13647e+06
1.1181e+06
1.09973e+06
1.08137e+06
1.06303e+06
1.0447e+06
1.02638e+06
1.00809e+06
989820
971577
953365
935185
917040
898935
880872
862855
844886
826968
809105
791301
773559
755884
738278
720745
703288
685911
668620
651418
634311
617301
600396
583601
566919
550357
533919
517611
501440
485416
469546
453840
438312
422977
407855
392979
378400
364238
2.82887e+06
2.82864e+06
2.82819e+06
2.8275e+06
2.82656e+06
2.82539e+06
2.82397e+06
2.8223e+06
2.82038e+06
2.81819e+06
2.81575e+06
2.81305e+06
2.81008e+06
2.80685e+06
2.80334e+06
2.79957e+06
2.79552e+06
2.7912e+06
2.78662e+06
2.78176e+06
2.77663e+06
2.77123e+06
2.76557e+06
2.75964e+06
2.75346e+06
2.74701e+06
2.74031e+06
2.73335e+06
2.72614e+06
2.71868e+06
2.71097e+06
2.70302e+06
2.69484e+06
2.68642e+06
2.67776e+06
2.66888e+06
2.65977e+06
2.65044e+06
2.6409e+06
2.63114e+06
2.62117e+06
2.61099e+06
2.6006e+06
2.59001e+06
2.57922e+06
2.56823e+06
2.55706e+06
2.54569e+06
2.53414e+06
2.5224e+06
2.51049e+06
2.4984e+06
2.48615e+06
2.47373e+06
2.46115e+06
2.44841e+06
2.43552e+06
2.42248e+06
2.40929e+06
2.39597e+06
2.38251e+06
2.3689e+06
2.35516e+06
2.34128e+06
2.32726e+06
2.3131e+06
2.29881e+06
2.28439e+06
2.26983e+06
2.25514e+06
2.24032e+06
2.22539e+06
2.21033e+06
2.19516e+06
2.17987e+06
2.16448e+06
2.14899e+06
2.13341e+06
2.11774e+06
2.10197e+06
2.08612e+06
2.07019e+06
2.05418e+06
2.03808e+06
2.0219e+06
2.00565e+06
1.98931e+06
1.97289e+06
1.95639e+06
1.93981e+06
1.92314e+06
1.90639e+06
1.88955e+06
1.87263e+06
1.85562e+06
1.83852e+06
1.82134e+06
1.80407e+06
1.78673e+06
1.76931e+06
1.75183e+06
1.73428e+06
1.71668e+06
1.69902e+06
1.68133e+06
1.66359e+06
1.64582e+06
1.62801e+06
1.61018e+06
1.59232e+06
1.57443e+06
1.55652e+06
1.53859e+06
1.52063e+06
1.50263e+06
1.4846e+06
1.46652e+06
1.44841e+06
1.43025e+06
1.41205e+06
1.3938e+06
1.37552e+06
1.3572e+06
1.33885e+06
1.32048e+06
1.30208e+06
1.28368e+06
1.26527e+06
1.24685e+06
1.22844e+06
1.21003e+06
1.19163e+06
1.17324e+06
1.15485e+06
1.13647e+06
1.1181e+06
1.09973e+06
1.08137e+06
1.06303e+06
1.0447e+06
1.02638e+06
1.00809e+06
989820
971578
953365
935185
917041
898936
880873
862856
844886
826969
809106
791302
773560
755885
738279
720745
703288
685912
668621
651419
634312
617302
600397
583601
566919
550356
533918
517609
501438
485412
469541
453834
438304
422965
407838
392951
378349
364113
2.83092e+06
2.83069e+06
2.83023e+06
2.82953e+06
2.82859e+06
2.82741e+06
2.82597e+06
2.82429e+06
2.82234e+06
2.82014e+06
2.81767e+06
2.81494e+06
2.81194e+06
2.80867e+06
2.80513e+06
2.80132e+06
2.79724e+06
2.79288e+06
2.78825e+06
2.78335e+06
2.77818e+06
2.77274e+06
2.76703e+06
2.76106e+06
2.75482e+06
2.74833e+06
2.74158e+06
2.73458e+06
2.72733e+06
2.71982e+06
2.71208e+06
2.70409e+06
2.69587e+06
2.68741e+06
2.67872e+06
2.6698e+06
2.66066e+06
2.6513e+06
2.64172e+06
2.63193e+06
2.62193e+06
2.61171e+06
2.6013e+06
2.59068e+06
2.57986e+06
2.56885e+06
2.55764e+06
2.54625e+06
2.53467e+06
2.52291e+06
2.51098e+06
2.49887e+06
2.48659e+06
2.47415e+06
2.46154e+06
2.44879e+06
2.43588e+06
2.42282e+06
2.40963e+06
2.39629e+06
2.38282e+06
2.36921e+06
2.35545e+06
2.34156e+06
2.32753e+06
2.31337e+06
2.29906e+06
2.28462e+06
2.27005e+06
2.25534e+06
2.24051e+06
2.22555e+06
2.21048e+06
2.1953e+06
2.18001e+06
2.16462e+06
2.14913e+06
2.13355e+06
2.11787e+06
2.1021e+06
2.08625e+06
2.07032e+06
2.0543e+06
2.0382e+06
2.02201e+06
2.00575e+06
1.98941e+06
1.97299e+06
1.95649e+06
1.9399e+06
1.92323e+06
1.90648e+06
1.88964e+06
1.87271e+06
1.8557e+06
1.83859e+06
1.82141e+06
1.80414e+06
1.78679e+06
1.76937e+06
1.75188e+06
1.73433e+06
1.71672e+06
1.69906e+06
1.68136e+06
1.66362e+06
1.64584e+06
1.62803e+06
1.6102e+06
1.59234e+06
1.57446e+06
1.55655e+06
1.53862e+06
1.52065e+06
1.50266e+06
1.48462e+06
1.46655e+06
1.44843e+06
1.43027e+06
1.41207e+06
1.39382e+06
1.37554e+06
1.35722e+06
1.33887e+06
1.32049e+06
1.3021e+06
1.28369e+06
1.26528e+06
1.24686e+06
1.22845e+06
1.21004e+06
1.19164e+06
1.17324e+06
1.15485e+06
1.13647e+06
1.1181e+06
1.09973e+06
1.08137e+06
1.06303e+06
1.0447e+06
1.02638e+06
1.00809e+06
989821
971579
953366
935186
917042
898937
880874
862857
844887
826970
809108
791304
773562
755887
738280
720747
703290
685914
668622
651421
634313
617304
600399
583602
566919
550355
533915
517605
501433
485405
469532
453822
438287
422941
407804
392898
378259
363928
2.83402e+06
2.83378e+06
2.83331e+06
2.8326e+06
2.83165e+06
2.83045e+06
2.82899e+06
2.82727e+06
2.8253e+06
2.82306e+06
2.82055e+06
2.81778e+06
2.81473e+06
2.81141e+06
2.80782e+06
2.80395e+06
2.79981e+06
2.79539e+06
2.7907e+06
2.78573e+06
2.78049e+06
2.77499e+06
2.76922e+06
2.76318e+06
2.75688e+06
2.75032e+06
2.7435e+06
2.73643e+06
2.72911e+06
2.72155e+06
2.71374e+06
2.70569e+06
2.69741e+06
2.68889e+06
2.68014e+06
2.67117e+06
2.66198e+06
2.65257e+06
2.64294e+06
2.6331e+06
2.62306e+06
2.6128e+06
2.60234e+06
2.59167e+06
2.58081e+06
2.56976e+06
2.55851e+06
2.54708e+06
2.53546e+06
2.52367e+06
2.51169e+06
2.49955e+06
2.48723e+06
2.47476e+06
2.46213e+06
2.44934e+06
2.43641e+06
2.42334e+06
2.41012e+06
2.39677e+06
2.38327e+06
2.36964e+06
2.35587e+06
2.34197e+06
2.32792e+06
2.31374e+06
2.29941e+06
2.28496e+06
2.27036e+06
2.25563e+06
2.24077e+06
2.2258e+06
2.21071e+06
2.19552e+06
2.18022e+06
2.16483e+06
2.14934e+06
2.13375e+06
2.11807e+06
2.1023e+06
2.08644e+06
2.07049e+06
2.05447e+06
2.03836e+06
2.02217e+06
2.0059e+06
1.98955e+06
1.97313e+06
1.95662e+06
1.94003e+06
1.92336e+06
1.9066e+06
1.88976e+06
1.87283e+06
1.85581e+06
1.8387e+06
1.82151e+06
1.80424e+06
1.78688e+06
1.76945e+06
1.75196e+06
1.7344e+06
1.71678e+06
1.69912e+06
1.6814e+06
1.66366e+06
1.64588e+06
1.62807e+06
1.61023e+06
1.59237e+06
1.57449e+06
1.55658e+06
1.53865e+06
1.52069e+06
1.50269e+06
1.48465e+06
1.46658e+06
1.44846e+06
1.4303e+06
1.4121e+06
1.39385e+06
1.37556e+06
1.35724e+06
1.33889e+06
1.32051e+06
1.30212e+06
1.28371e+06
1.26529e+06
1.24688e+06
1.22846e+06
1.21005e+06
1.19164e+06
1.17325e+06
1.15486e+06
1.13647e+06
1.1181e+06
1.09973e+06
1.08137e+06
1.06303e+06
1.0447e+06
1.02639e+06
1.00809e+06
989823
971581
953368
935188
917044
898939
880876
862859
844889
826972
809110
791306
773564
755888
738282
720749
703292
685915
668624
651423
634315
617306
600400
583602
566919
550353
533912
517600
501425
485395
469518
453803
438262
422907
407755
392825
378140
363717
2.83817e+06
2.83793e+06
2.83745e+06
2.83672e+06
2.83575e+06
2.83452e+06
2.83303e+06
2.83128e+06
2.82926e+06
2.82697e+06
2.8244e+06
2.82157e+06
2.81846e+06
2.81507e+06
2.8114e+06
2.80745e+06
2.80323e+06
2.79873e+06
2.79395e+06
2.7889e+06
2.78358e+06
2.77798e+06
2.77212e+06
2.76599e+06
2.75961e+06
2.75296e+06
2.74605e+06
2.73889e+06
2.73149e+06
2.72384e+06
2.71594e+06
2.70781e+06
2.69945e+06
2.69085e+06
2.68203e+06
2.67299e+06
2.66373e+06
2.65425e+06
2.64456e+06
2.63466e+06
2.62455e+06
2.61423e+06
2.60371e+06
2.59299e+06
2.58207e+06
2.57096e+06
2.55966e+06
2.54817e+06
2.5365e+06
2.52465e+06
2.51263e+06
2.50043e+06
2.48807e+06
2.47556e+06
2.46289e+06
2.45007e+06
2.43711e+06
2.42401e+06
2.41076e+06
2.39738e+06
2.38386e+06
2.37021e+06
2.35641e+06
2.34248e+06
2.32841e+06
2.3142e+06
2.29985e+06
2.28537e+06
2.27074e+06
2.25599e+06
2.24111e+06
2.22612e+06
2.21102e+06
2.19581e+06
2.18051e+06
2.16511e+06
2.14961e+06
2.13401e+06
2.11832e+06
2.10254e+06
2.08667e+06
2.07072e+06
2.05468e+06
2.03856e+06
2.02237e+06
2.00609e+06
1.98973e+06
1.9733e+06
1.95679e+06
1.9402e+06
1.92352e+06
1.90676e+06
1.88991e+06
1.87298e+06
1.85595e+06
1.83884e+06
1.82164e+06
1.80436e+06
1.787e+06
1.76956e+06
1.75206e+06
1.73449e+06
1.71686e+06
1.69918e+06
1.68146e+06
1.66371e+06
1.64592e+06
1.62811e+06
1.61027e+06
1.59241e+06
1.57453e+06
1.55662e+06
1.53869e+06
1.52072e+06
1.50273e+06
1.48469e+06
1.46662e+06
1.4485e+06
1.43034e+06
1.41214e+06
1.39389e+06
1.3756e+06
1.35727e+06
1.33892e+06
1.32054e+06
1.30214e+06
1.28373e+06
1.26531e+06
1.24689e+06
1.22847e+06
1.21006e+06
1.19165e+06
1.17325e+06
1.15486e+06
1.13648e+06
1.1181e+06
1.09973e+06
1.08138e+06
1.06303e+06
1.0447e+06
1.02639e+06
1.00809e+06
989825
971583
953370
935191
917047
898942
880879
862861
844892
826975
809112
791309
773567
755891
738284
720751
703294
685917
668626
651424
634316
617306
600400
583602
566917
550351
533907
517593
501415
485382
469500
453780
438230
422863
407693
392735
378002
363496
2.84342e+06
2.84317e+06
2.84267e+06
2.84192e+06
2.84092e+06
2.83965e+06
2.83811e+06
2.83631e+06
2.83423e+06
2.83187e+06
2.82924e+06
2.82632e+06
2.82313e+06
2.81965e+06
2.81589e+06
2.81184e+06
2.80752e+06
2.80291e+06
2.79803e+06
2.79287e+06
2.78743e+06
2.78173e+06
2.77575e+06
2.76951e+06
2.76301e+06
2.75625e+06
2.74923e+06
2.74197e+06
2.73445e+06
2.72669e+06
2.71869e+06
2.71046e+06
2.702e+06
2.6933e+06
2.68439e+06
2.67526e+06
2.6659e+06
2.65634e+06
2.64657e+06
2.63659e+06
2.6264e+06
2.61601e+06
2.60541e+06
2.59462e+06
2.58363e+06
2.57244e+06
2.56107e+06
2.54952e+06
2.53778e+06
2.52586e+06
2.51378e+06
2.50152e+06
2.48911e+06
2.47655e+06
2.46383e+06
2.45097e+06
2.43797e+06
2.42483e+06
2.41155e+06
2.39813e+06
2.38458e+06
2.37089e+06
2.35706e+06
2.3431e+06
2.32899e+06
2.31475e+06
2.30038e+06
2.28586e+06
2.2712e+06
2.25642e+06
2.24152e+06
2.22652e+06
2.2114e+06
2.19618e+06
2.18087e+06
2.16545e+06
2.14993e+06
2.13433e+06
2.11862e+06
2.10283e+06
2.08695e+06
2.07098e+06
2.05493e+06
2.0388e+06
2.02259e+06
2.00631e+06
1.98994e+06
1.9735e+06
1.95699e+06
1.94039e+06
1.92371e+06
1.90695e+06
1.8901e+06
1.87316e+06
1.85613e+06
1.83901e+06
1.8218e+06
1.80451e+06
1.78714e+06
1.76969e+06
1.75218e+06
1.7346e+06
1.71696e+06
1.69927e+06
1.68154e+06
1.66377e+06
1.64598e+06
1.62816e+06
1.61031e+06
1.59245e+06
1.57457e+06
1.55666e+06
1.53872e+06
1.52076e+06
1.50276e+06
1.48473e+06
1.46666e+06
1.44854e+06
1.43038e+06
1.41218e+06
1.39393e+06
1.37564e+06
1.35731e+06
1.33895e+06
1.32057e+06
1.30217e+06
1.28375e+06
1.26533e+06
1.24691e+06
1.22849e+06
1.21007e+06
1.19166e+06
1.17326e+06
1.15487e+06
1.13648e+06
1.11811e+06
1.09974e+06
1.08138e+06
1.06303e+06
1.0447e+06
1.02639e+06
1.0081e+06
989829
971587
953374
935194
917051
898946
880883
862865
844896
826979
809116
791312
773570
755894
738288
720754
703297
685920
668628
651425
634316
617305
600398
583599
566914
550346
533901
517584
501403
485365
469479
453751
438192
422812
407622
392633
377852
363274
2.84979e+06
2.84952e+06
2.849e+06
2.84822e+06
2.84718e+06
2.84586e+06
2.84426e+06
2.84239e+06
2.84023e+06
2.8378e+06
2.83507e+06
2.83206e+06
2.82876e+06
2.82517e+06
2.82129e+06
2.81713e+06
2.81268e+06
2.80795e+06
2.80293e+06
2.79764e+06
2.79207e+06
2.78622e+06
2.78011e+06
2.77373e+06
2.7671e+06
2.7602e+06
2.75305e+06
2.74565e+06
2.738e+06
2.73011e+06
2.72199e+06
2.71363e+06
2.70504e+06
2.69623e+06
2.68721e+06
2.67796e+06
2.6685e+06
2.65884e+06
2.64897e+06
2.63889e+06
2.62861e+06
2.61812e+06
2.60744e+06
2.59656e+06
2.58548e+06
2.57421e+06
2.56275e+06
2.55111e+06
2.5393e+06
2.5273e+06
2.51514e+06
2.50282e+06
2.49034e+06
2.47772e+06
2.46495e+06
2.45203e+06
2.43898e+06
2.42579e+06
2.41247e+06
2.39901e+06
2.38541e+06
2.37169e+06
2.35782e+06
2.34382e+06
2.32968e+06
2.3154e+06
2.30098e+06
2.28643e+06
2.27175e+06
2.25694e+06
2.24203e+06
2.227e+06
2.21186e+06
2.19663e+06
2.18129e+06
2.16585e+06
2.15032e+06
2.1347e+06
2.11898e+06
2.10317e+06
2.08727e+06
2.07129e+06
2.05522e+06
2.03908e+06
2.02285e+06
2.00656e+06
1.99018e+06
1.97374e+06
1.95721e+06
1.94061e+06
1.92393e+06
1.90716e+06
1.89031e+06
1.87336e+06
1.85632e+06
1.83919e+06
1.82198e+06
1.80468e+06
1.7873e+06
1.76984e+06
1.75231e+06
1.73472e+06
1.71707e+06
1.69937e+06
1.68163e+06
1.66385e+06
1.64604e+06
1.62821e+06
1.61037e+06
1.5925e+06
1.57461e+06
1.5567e+06
1.53876e+06
1.5208e+06
1.5028e+06
1.48477e+06
1.4667e+06
1.44859e+06
1.43043e+06
1.41222e+06
1.39397e+06
1.37568e+06
1.35735e+06
1.33899e+06
1.3206e+06
1.3022e+06
1.28378e+06
1.26536e+06
1.24693e+06
1.22851e+06
1.21009e+06
1.19167e+06
1.17327e+06
1.15488e+06
1.13649e+06
1.11811e+06
1.09974e+06
1.08139e+06
1.06304e+06
1.04471e+06
1.0264e+06
1.0081e+06
989834
971591
953379
935199
917056
898951
880888
862871
844901
826984
809121
791317
773575
755899
738292
720758
703300
685923
668630
651426
634316
617305
600396
583596
566909
550340
533893
517574
501389
485347
469454
453719
438149
422754
407543
392523
377697
363055
2.85732e+06
2.85704e+06
2.85649e+06
2.85567e+06
2.85457e+06
2.85318e+06
2.85151e+06
2.84956e+06
2.84731e+06
2.84477e+06
2.84193e+06
2.8388e+06
2.83537e+06
2.83165e+06
2.82763e+06
2.82332e+06
2.81872e+06
2.81383e+06
2.80866e+06
2.8032e+06
2.79747e+06
2.79147e+06
2.78519e+06
2.77865e+06
2.77185e+06
2.76479e+06
2.75748e+06
2.74993e+06
2.74213e+06
2.73409e+06
2.72581e+06
2.71731e+06
2.70858e+06
2.69964e+06
2.69047e+06
2.6811e+06
2.67152e+06
2.66174e+06
2.65175e+06
2.64156e+06
2.63117e+06
2.62058e+06
2.6098e+06
2.59881e+06
2.58763e+06
2.57626e+06
2.56471e+06
2.55297e+06
2.54106e+06
2.52897e+06
2.51672e+06
2.50432e+06
2.49176e+06
2.47907e+06
2.46623e+06
2.45325e+06
2.44014e+06
2.4269e+06
2.41352e+06
2.40001e+06
2.38637e+06
2.3726e+06
2.35869e+06
2.34464e+06
2.33045e+06
2.31613e+06
2.30168e+06
2.2871e+06
2.27239e+06
2.25756e+06
2.24261e+06
2.22756e+06
2.2124e+06
2.19714e+06
2.18178e+06
2.16632e+06
2.15076e+06
2.13512e+06
2.11937e+06
2.10354e+06
2.08763e+06
2.07162e+06
2.05554e+06
2.03938e+06
2.02314e+06
2.00683e+06
1.99044e+06
1.97399e+06
1.95746e+06
1.94085e+06
1.92417e+06
1.90739e+06
1.89053e+06
1.87358e+06
1.85653e+06
1.83939e+06
1.82217e+06
1.80485e+06
1.78746e+06
1.77e+06
1.75246e+06
1.73486e+06
1.71719e+06
1.69948e+06
1.68172e+06
1.66393e+06
1.64612e+06
1.62828e+06
1.61042e+06
1.59255e+06
1.57466e+06
1.55674e+06
1.53881e+06
1.52084e+06
1.50285e+06
1.48481e+06
1.46674e+06
1.44863e+06
1.43047e+06
1.41226e+06
1.39401e+06
1.37572e+06
1.35738e+06
1.33902e+06
1.32063e+06
1.30223e+06
1.28381e+06
1.26538e+06
1.24696e+06
1.22853e+06
1.2101e+06
1.19169e+06
1.17328e+06
1.15489e+06
1.1365e+06
1.11812e+06
1.09975e+06
1.08139e+06
1.06305e+06
1.04472e+06
1.0264e+06
1.00811e+06
989840
971598
953386
935206
917062
898958
880895
862878
844909
826991
809128
791324
773582
755905
738297
720763
703305
685927
668633
651429
634318
617305
600394
583592
566904
550332
533883
517561
501373
485326
469427
453683
438102
422691
407458
392408
377540
362843
2.86607e+06
2.86576e+06
2.86517e+06
2.8643e+06
2.86313e+06
2.86167e+06
2.85991e+06
2.85785e+06
2.85549e+06
2.85282e+06
2.84984e+06
2.84657e+06
2.84299e+06
2.8391e+06
2.83492e+06
2.83043e+06
2.82565e+06
2.82058e+06
2.81522e+06
2.80958e+06
2.80366e+06
2.79747e+06
2.791e+06
2.78427e+06
2.77728e+06
2.77004e+06
2.76254e+06
2.7548e+06
2.74682e+06
2.73861e+06
2.73016e+06
2.72149e+06
2.71261e+06
2.7035e+06
2.69419e+06
2.68467e+06
2.67495e+06
2.66503e+06
2.65491e+06
2.6446e+06
2.63409e+06
2.62338e+06
2.61247e+06
2.60137e+06
2.59007e+06
2.57859e+06
2.56692e+06
2.55507e+06
2.54305e+06
2.53086e+06
2.51851e+06
2.50601e+06
2.49337e+06
2.48059e+06
2.46767e+06
2.45463e+06
2.44145e+06
2.42814e+06
2.41471e+06
2.40114e+06
2.38745e+06
2.37362e+06
2.35966e+06
2.34556e+06
2.33132e+06
2.31696e+06
2.30247e+06
2.28785e+06
2.27311e+06
2.25825e+06
2.24328e+06
2.2282e+06
2.21301e+06
2.19772e+06
2.18233e+06
2.16684e+06
2.15126e+06
2.13558e+06
2.11982e+06
2.10396e+06
2.08802e+06
2.07199e+06
2.05589e+06
2.0397e+06
2.02345e+06
2.00712e+06
1.99073e+06
1.97426e+06
1.95772e+06
1.94111e+06
1.92441e+06
1.90763e+06
1.89076e+06
1.8738e+06
1.85674e+06
1.8396e+06
1.82236e+06
1.80504e+06
1.78763e+06
1.77016e+06
1.75261e+06
1.73499e+06
1.71732e+06
1.69959e+06
1.68183e+06
1.66403e+06
1.6462e+06
1.62835e+06
1.61049e+06
1.59261e+06
1.57471e+06
1.55679e+06
1.53885e+06
1.52088e+06
1.50289e+06
1.48485e+06
1.46678e+06
1.44867e+06
1.43051e+06
1.4123e+06
1.39405e+06
1.37575e+06
1.35742e+06
1.33905e+06
1.32066e+06
1.30226e+06
1.28384e+06
1.26541e+06
1.24698e+06
1.22855e+06
1.21012e+06
1.19171e+06
1.1733e+06
1.1549e+06
1.13651e+06
1.11813e+06
1.09976e+06
1.0814e+06
1.06306e+06
1.04473e+06
1.02641e+06
1.00812e+06
989850
971607
953395
935215
917072
898967
880905
862887
844918
827001
809138
791333
773590
755913
738305
720769
703310
685932
668638
651432
634320
617305
600394
583590
566898
550325
533873
517548
501356
485304
469398
453645
438052
422625
407370
392291
377384
362639
2.87608e+06
2.87575e+06
2.87512e+06
2.87418e+06
2.87294e+06
2.87138e+06
2.86951e+06
2.86732e+06
2.86482e+06
2.86199e+06
2.85886e+06
2.85541e+06
2.85164e+06
2.84756e+06
2.84318e+06
2.83849e+06
2.8335e+06
2.82822e+06
2.82264e+06
2.81678e+06
2.81064e+06
2.80422e+06
2.79754e+06
2.79059e+06
2.78338e+06
2.77592e+06
2.76822e+06
2.76027e+06
2.75209e+06
2.74367e+06
2.73503e+06
2.72617e+06
2.7171e+06
2.70782e+06
2.69834e+06
2.68865e+06
2.67878e+06
2.6687e+06
2.65844e+06
2.64798e+06
2.63733e+06
2.62648e+06
2.61544e+06
2.60421e+06
2.59278e+06
2.58117e+06
2.56938e+06
2.55741e+06
2.54527e+06
2.53296e+06
2.5205e+06
2.5079e+06
2.49516e+06
2.48228e+06
2.46928e+06
2.45615e+06
2.44289e+06
2.42952e+06
2.41601e+06
2.40239e+06
2.38863e+06
2.37474e+06
2.36072e+06
2.34656e+06
2.33228e+06
2.31788e+06
2.30334e+06
2.28869e+06
2.27391e+06
2.25902e+06
2.24401e+06
2.2289e+06
2.21368e+06
2.19835e+06
2.18293e+06
2.16742e+06
2.15181e+06
2.1361e+06
2.12031e+06
2.10442e+06
2.08845e+06
2.07239e+06
2.05626e+06
2.04006e+06
2.02378e+06
2.00743e+06
1.99102e+06
1.97454e+06
1.95799e+06
1.94136e+06
1.92466e+06
1.90787e+06
1.89099e+06
1.87402e+06
1.85696e+06
1.8398e+06
1.82255e+06
1.80522e+06
1.7878e+06
1.77031e+06
1.75276e+06
1.73513e+06
1.71745e+06
1.69971e+06
1.68193e+06
1.66412e+06
1.64629e+06
1.62843e+06
1.61056e+06
1.59267e+06
1.57476e+06
1.55684e+06
1.53889e+06
1.52092e+06
1.50293e+06
1.48489e+06
1.46682e+06
1.4487e+06
1.43054e+06
1.41233e+06
1.39408e+06
1.37578e+06
1.35745e+06
1.33908e+06
1.32069e+06
1.30228e+06
1.28386e+06
1.26544e+06
1.247e+06
1.22857e+06
1.21015e+06
1.19173e+06
1.17332e+06
1.15492e+06
1.13653e+06
1.11815e+06
1.09978e+06
1.08142e+06
1.06307e+06
1.04474e+06
1.02642e+06
1.00813e+06
989862
971620
953407
935228
917085
898980
880918
862900
844931
827014
809150
791345
773602
755924
738315
720778
703318
685939
668643
651437
634323
617307
600394
583588
566894
550317
533862
517534
501338
485280
469368
453605
438000
422557
407280
392173
377231
362444
2.88746e+06
2.88709e+06
2.88641e+06
2.88539e+06
2.88405e+06
2.88238e+06
2.88038e+06
2.87804e+06
2.87536e+06
2.87236e+06
2.86902e+06
2.86536e+06
2.86138e+06
2.85708e+06
2.85246e+06
2.84753e+06
2.84229e+06
2.83676e+06
2.83093e+06
2.82481e+06
2.81842e+06
2.81175e+06
2.80481e+06
2.79761e+06
2.79016e+06
2.78245e+06
2.77451e+06
2.76633e+06
2.75791e+06
2.74927e+06
2.74042e+06
2.73135e+06
2.72207e+06
2.71259e+06
2.70292e+06
2.69305e+06
2.68299e+06
2.67274e+06
2.66231e+06
2.65168e+06
2.64087e+06
2.62987e+06
2.61868e+06
2.6073e+06
2.59573e+06
2.58398e+06
2.57205e+06
2.55995e+06
2.54768e+06
2.53525e+06
2.52267e+06
2.50996e+06
2.49711e+06
2.48413e+06
2.47103e+06
2.45781e+06
2.44447e+06
2.43101e+06
2.41743e+06
2.40373e+06
2.3899e+06
2.37595e+06
2.36186e+06
2.34765e+06
2.33332e+06
2.31887e+06
2.30429e+06
2.28959e+06
2.27478e+06
2.25985e+06
2.2448e+06
2.22965e+06
2.2144e+06
2.19905e+06
2.1836e+06
2.16805e+06
2.15241e+06
2.13667e+06
2.12084e+06
2.10492e+06
2.08891e+06
2.07282e+06
2.05666e+06
2.04043e+06
2.02413e+06
2.00776e+06
1.99133e+06
1.97483e+06
1.95827e+06
1.94163e+06
1.92491e+06
1.90811e+06
1.89122e+06
1.87424e+06
1.85716e+06
1.83999e+06
1.82273e+06
1.80539e+06
1.78797e+06
1.77047e+06
1.7529e+06
1.73526e+06
1.71757e+06
1.69982e+06
1.68204e+06
1.66422e+06
1.64637e+06
1.62851e+06
1.61063e+06
1.59273e+06
1.57482e+06
1.55689e+06
1.53894e+06
1.52097e+06
1.50296e+06
1.48493e+06
1.46685e+06
1.44873e+06
1.43057e+06
1.41236e+06
1.3941e+06
1.37581e+06
1.35747e+06
1.33911e+06
1.32072e+06
1.30231e+06
1.28389e+06
1.26546e+06
1.24703e+06
1.2286e+06
1.21017e+06
1.19175e+06
1.17334e+06
1.15494e+06
1.13655e+06
1.11817e+06
1.09979e+06
1.08143e+06
1.06309e+06
1.04475e+06
1.02644e+06
1.00815e+06
989879
971637
953425
935246
917102
898998
880935
862918
844949
827031
809167
791362
773617
755938
738328
720791
703330
685948
668651
651443
634328
617310
600395
583587
566890
550310
533851
517519
501319
485256
469336
453565
437947
422487
407191
392057
377083
362259
2.90029e+06
2.89989e+06
2.89913e+06
2.89803e+06
2.89658e+06
2.89477e+06
2.8926e+06
2.89008e+06
2.8872e+06
2.88398e+06
2.88041e+06
2.8765e+06
2.87226e+06
2.86769e+06
2.86279e+06
2.85757e+06
2.85205e+06
2.84622e+06
2.8401e+06
2.8337e+06
2.82701e+06
2.82005e+06
2.81282e+06
2.80534e+06
2.79761e+06
2.78963e+06
2.78141e+06
2.77297e+06
2.76429e+06
2.7554e+06
2.7463e+06
2.737e+06
2.72749e+06
2.71779e+06
2.7079e+06
2.69782e+06
2.68756e+06
2.67711e+06
2.66649e+06
2.65568e+06
2.64468e+06
2.63351e+06
2.62215e+06
2.61061e+06
2.59889e+06
2.58699e+06
2.57491e+06
2.56267e+06
2.55027e+06
2.53771e+06
2.52501e+06
2.51217e+06
2.4992e+06
2.48612e+06
2.47291e+06
2.45959e+06
2.44616e+06
2.43262e+06
2.41895e+06
2.40517e+06
2.39126e+06
2.37723e+06
2.36308e+06
2.34881e+06
2.33443e+06
2.31992e+06
2.30529e+06
2.29055e+06
2.27569e+06
2.26072e+06
2.24564e+06
2.23046e+06
2.21517e+06
2.19979e+06
2.18431e+06
2.16873e+06
2.15305e+06
2.13728e+06
2.12141e+06
2.10544e+06
2.0894e+06
2.07328e+06
2.05708e+06
2.04082e+06
2.02449e+06
2.0081e+06
1.99165e+06
1.97513e+06
1.95854e+06
1.94189e+06
1.92516e+06
1.90834e+06
1.89143e+06
1.87444e+06
1.85735e+06
1.84017e+06
1.8229e+06
1.80555e+06
1.78812e+06
1.77061e+06
1.75303e+06
1.73539e+06
1.71768e+06
1.69993e+06
1.68214e+06
1.66431e+06
1.64646e+06
1.62859e+06
1.61071e+06
1.5928e+06
1.57488e+06
1.55695e+06
1.53899e+06
1.52101e+06
1.503e+06