/*--------------------------------*- C++ -*----------------------------------*\
  =========                 |
  \\      /  F ield         | OpenFOAM: The Open Source CFD Toolbox
   \\    /   O peration     | Website:  https://openfoam.org
    \\  /    A nd           | Version:  6
     \\/     M anipulation  |
\*---------------------------------------------------------------------------*/
FoamFile
{
    version     2.0;
    format      ascii;
    class       volVectorField;
    location    "0.1";
    object      U_0;
}
// * * * * * * * * * * * * * * * * * * * * * * * * * * * * * * * * * * * * * //

dimensions      [0 1 -1 0 0 0 0];

internalField   nonuniform List<vector> 
12225
(
(9.89421 -0.0317641 0)
(9.66504 0.0321356 0)
(9.37229 0.0687384 0)
(9.04756 0.0646673 0)
(8.68384 0.051601 0)
(8.33046 0.0371272 0)
(8.0429 0.0265166 0)
(7.83228 0.0312201 0)
(7.64806 0.0540209 0)
(7.43504 0.0800632 0)
(7.17022 0.0919056 0)
(6.88403 0.0807648 0)
(6.61437 0.0592425 0)
(6.37156 0.0386287 0)
(6.14998 0.0308596 0)
(5.93126 0.0276951 0)
(5.69474 0.0513986 0)
(5.42166 0.0413086 0)
(9.95165 0.0537968 0)
(9.92264 0.0736519 0)
(9.97711 0.0616939 0)
(10.0552 0.0767039 0)
(10.074 0.10101 0)
(10.0345 0.109394 0)
(9.98149 0.0927563 0)
(9.962 0.0649823 0)
(9.99235 0.047989 0)
(10.0528 0.0510343 0)
(10.1031 0.0684084 0)
(10.1084 0.0870427 0)
(10.0543 0.100229 0)
(9.94232 0.110396 0)
(9.79694 0.119268 0)
(9.63659 0.128826 0)
(9.4819 0.148603 0)
(9.33769 0.178292 0)
(9.9514 -0.0749004 0)
(9.9954 0.0238994 0)
(9.96896 0.065023 0)
(10.0189 0.0756431 0)
(10.0442 0.0793931 0)
(10.0299 0.07527 0)
(10.0009 0.0576016 0)
(9.988 0.0355184 0)
(10.0178 0.0269586 0)
(10.0943 0.0401989 0)
(10.1941 0.070062 0)
(10.28 0.102652 0)
(10.3245 0.1289 0)
(10.3195 0.146666 0)
(10.2781 0.156741 0)
(10.215 0.163359 0)
(10.1453 0.175299 0)
(10.0791 0.193986 0)
(9.81589 0.0494665 0)
(9.87806 0.0337636 0)
(9.95091 0.0293451 0)
(10.0139 0.056373 0)
(10.0518 0.0991704 0)
(10.0645 0.1191 0)
(10.041 0.101512 0)
(9.99144 0.0624241 0)
(9.95201 0.0278459 0)
(9.95513 0.0142354 0)
(10.007 0.0246821 0)
(10.0885 0.0521747 0)
(10.1682 0.0870513 0)
(10.2217 0.123023 0)
(10.2373 0.156251 0)
(10.2187 0.184528 0)
(10.1732 0.211704 0)
(10.1221 0.239209 0)
(9.80185 -0.044174 0)
(9.90383 0.0102628 0)
(9.97637 0.0463886 0)
(10.0101 0.0414319 0)
(10.0351 0.0507874 0)
(10.0597 0.0742781 0)
(10.0692 0.0817878 0)
(10.0542 0.0630987 0)
(10.0175 0.0317838 0)
(9.97197 0.00764378 0)
(9.93689 0.0047453 0)
(9.92703 0.0264239 0)
(9.94186 0.0658208 0)
(9.96984 0.113424 0)
(9.99897 0.159157 0)
(10.0197 0.196799 0)
(10.0306 0.227806 0)
(10.0299 0.25537 0)
(10.0522 0.0110027 0)
(10.0551 -0.00340274 0)
(10.0315 0.0223815 0)
(10.0405 0.053944 0)
(10.0312 0.0822014 0)
(10.0197 0.0989698 0)
(10.0279 0.0942396 0)
(10.056 0.0746335 0)
(10.0865 0.0555563 0)
(10.0989 0.0463558 0)
(10.0868 0.0483543 0)
(10.0615 0.0602815 0)
(10.0409 0.080123 0)
(10.0364 0.106976 0)
(10.0504 0.138693 0)
(10.0768 0.171831 0)
(10.1069 0.205804 0)
(10.134 0.239193 0)
(9.96488 0.00414869 0)
(10.0204 0.021907 0)
(10.0669 0.0287908 0)
(10.0946 0.0345008 0)
(10.0844 0.0668192 0)
(10.0693 0.0872848 0)
(10.062 0.0755404 0)
(10.0586 0.0456579 0)
(10.0597 0.0200875 0)
(10.0697 0.0117213 0)
(10.0888 0.0213568 0)
(10.1101 0.0441036 0)
(10.1244 0.0737294 0)
(10.124 0.106556 0)
(10.1079 0.139869 0)
(10.0807 0.172331 0)
(10.0472 0.203844 0)
(10.0171 0.235465 0)
(10.2241 0.0330166 0)
(10.3552 -0.0377073 0)
(10.2829 0.0280666 0)
(10.156 0.0660939 0)
(10.102 0.0965686 0)
(10.12 0.115422 0)
(10.1553 0.107477 0)
(10.1648 0.0796932 0)
(10.1378 0.0490947 0)
(10.0886 0.0287321 0)
(10.0393 0.0243911 0)
(10.006 0.0373207 0)
(9.99605 0.0651511 0)
(10.0037 0.1036 0)
(10.0263 0.14622 0)
(10.0536 0.187327 0)
(10.0891 0.222496 0)
(10.1247 0.252565 0)
(10.0701 0.00475766 0)
(9.90846 -0.000751431 0)
(9.96871 0.0476189 0)
(10.0729 0.0533873 0)
(10.1497 0.0422666 0)
(10.2197 0.032672 0)
(10.2815 0.0312198 0)
(10.3205 0.0395478 0)
(10.3332 0.0522823 0)
(10.3241 0.0630694 0)
(10.2971 0.0707218 0)
(10.2561 0.0791486 0)
(10.2072 0.0938295 0)
(10.1607 0.115755 0)
(10.1268 0.14248 0)
(10.1143 0.170215 0)
(10.1229 0.193992 0)
(10.1549 0.218223 0)
(10.0905 0.0034158 0)
(10.1364 0.0102397 0)
(10.1554 0.0482268 0)
(10.149 0.0777144 0)
(10.1385 0.0896172 0)
(10.1232 0.0882237 0)
(10.0891 0.0765857 0)
(10.0374 0.0605779 0)
(9.98817 0.0480922 0)
(9.95711 0.0463264 0)
(9.94573 0.0576694 0)
(9.94673 0.0790969 0)
(9.95389 0.103727 0)
(9.96708 0.125277 0)
(9.98634 0.139034 0)
(10.0156 0.146537 0)
(10.0531 0.149185 0)
(10.0978 0.155296 0)
(9.87143 -0.0188879 0)
(9.8447 -0.00120812 0)
(9.89843 -0.0197732 0)
(9.99509 -0.0065952 0)
(10.0787 0.0234362 0)
(10.12 0.0557431 0)
(10.1264 0.0850036 0)
(10.1229 0.10041 0)
(10.1252 0.0957894 0)
(10.1316 0.0788145 0)
(10.1368 0.0645682 0)
(10.1435 0.0648037 0)
(10.1594 0.0809077 0)
(10.1886 0.107625 0)
(10.2292 0.136372 0)
(10.2691 0.161484 0)
(10.3027 0.180837 0)
(10.3157 0.195448 0)
(9.98026 -0.0716746 0)
(10.0579 -0.0686098 0)
(10.1115 -0.0171294 0)
(10.1631 0.0196212 0)
(10.1741 0.0398471 0)
(10.1442 0.0523896 0)
(10.1102 0.0557479 0)
(10.0999 0.0525984 0)
(10.1115 0.0534021 0)
(10.1257 0.0644541 0)
(10.1279 0.0806781 0)
(10.1189 0.0919129 0)
(10.1113 0.0926044 0)
(10.1146 0.0850667 0)
(10.1352 0.0776678 0)
(10.1715 0.0784153 0)
(10.2186 0.0905683 0)
(10.2759 0.116105 0)
(9.95592 0.0867387 0)
(9.93111 -0.00708432 0)
(9.94164 -0.0351109 0)
(9.98187 -0.0280064 0)
(10.0341 0.0228694 0)
(10.0748 0.0790093 0)
(10.0881 0.10124 0)
(10.086 0.0860896 0)
(10.0976 0.0543139 0)
(10.1392 0.0283409 0)
(10.2009 0.0203275 0)
(10.259 0.0303935 0)
(10.2898 0.0515592 0)
(10.2854 0.0750865 0)
(10.2499 0.0935698 0)
(10.2077 0.107033 0)
(10.1709 0.113661 0)
(10.1632 0.121637 0)
(10.1029 -0.0181441 0)
(10.1176 -0.0577765 0)
(10.0242 -0.0407515 0)
(9.9254 -0.00945551 0)
(9.86419 0.0276649 0)
(9.87642 0.0594197 0)
(9.95419 0.0737306 0)
(10.0601 0.0687056 0)
(10.1559 0.0545379 0)
(10.2172 0.0456403 0)
(10.2418 0.0520572 0)
(10.2442 0.0748592 0)
(10.2402 0.105947 0)
(10.2395 0.133814 0)
(10.2425 0.148341 0)
(10.2468 0.148121 0)
(10.2503 0.136023 0)
(10.2491 0.120876 0)
(10.0431 -0.0947096 0)
(9.98733 -0.0156905 0)
(10.0069 0.0555435 0)
(10.0223 0.0600931 0)
(10.0098 0.0297347 0)
(9.97625 -0.011944 0)
(9.95147 -0.0544613 0)
(9.95938 -0.0863155 0)
(9.99491 -0.0948111 0)
(10.0331 -0.0760271 0)
(10.0546 -0.0383047 0)
(10.06 0.00506527 0)
(10.061 0.0420808 0)
(10.0709 0.0675509 0)
(10.0937 0.081615 0)
(10.1294 0.0888716 0)
(10.1705 0.0936733 0)
(10.2144 0.099805 0)
(9.79695 0.122896 0)
(9.93325 -0.000388231 0)
(10.0312 -0.0906793 0)
(10.0557 -0.0345892 0)
(10.0652 0.0601148 0)
(10.0693 0.0944853 0)
(10.0737 0.0628248 0)
(10.0784 0.0163205 0)
(10.0769 -0.00251387 0)
(10.0657 0.0133703 0)
(10.0496 0.0457999 0)
(10.0393 0.0738811 0)
(10.0404 0.0858263 0)
(10.0514 0.0812155 0)
(10.0674 0.0669123 0)
(10.0838 0.0513966 0)
(10.099 0.0402846 0)
(10.1116 0.0372422 0)
(10.5409 0.0447473 0)
(10.296 0.00714207 0)
(10.1403 -0.0115357 0)
(10.0599 0.0464142 0)
(10.0458 0.0781299 0)
(10.0611 0.0577576 0)
(10.0646 0.0104148 0)
(10.0588 -0.0304111 0)
(10.0627 -0.0458398 0)
(10.0818 -0.0350077 0)
(10.1117 -0.00811494 0)
(10.1457 0.0219184 0)
(10.1792 0.0453519 0)
(10.2066 0.0571253 0)
(10.2268 0.0579675 0)
(10.2404 0.0519907 0)
(10.2513 0.0440255 0)
(10.2622 0.0385245 0)
(9.92828 0.0666416 0)
(9.86989 0.20663 0)
(9.90028 0.120173 0)
(9.93693 0.0277746 0)
(9.97872 -0.00652147 0)
(10.0346 -0.0208227 0)
(10.077 -0.0418879 0)
(10.0984 -0.0653099 0)
(10.1114 -0.0775771 0)
(10.1254 -0.0741395 0)
(10.1437 -0.0602145 0)
(10.166 -0.043565 0)
(10.1875 -0.0287061 0)
(10.2017 -0.0154586 0)
(10.2038 -0.00369601 0)
(10.1975 0.00809706 0)
(10.186 0.0168356 0)
(10.1797 0.0215289 0)
(10.215 -0.0782304 0)
(10.258 0.019406 0)
(10.2492 0.0308339 0)
(10.2024 -0.00224879 0)
(10.1411 -0.00968136 0)
(10.0853 -0.00081154 0)
(10.04 -0.00130012 0)
(10.0076 -0.0195525 0)
(9.99112 -0.049031 0)
(9.98589 -0.0753946 0)
(9.98587 -0.082907 0)
(9.98893 -0.0628665 0)
(9.99372 -0.0199876 0)
(9.99957 0.0316459 0)
(10.0055 0.0711869 0)
(10.013 0.0853993 0)
(10.0218 0.0676641 0)
(10.0328 0.0210689 0)
(9.96926 0.0742069 0)
(9.98116 0.104284 0)
(9.99485 0.118043 0)
(10.0254 0.120577 0)
(10.0604 0.108203 0)
(10.1141 0.078809 0)
(10.1801 0.0320745 0)
(10.2323 -0.0159375 0)
(10.2471 -0.0469112 0)
(10.2163 -0.0561155 0)
(10.1534 -0.0508494 0)
(10.0852 -0.0402385 0)
(10.0347 -0.0300327 0)
(10.0115 -0.0216702 0)
(10.0152 -0.0153697 0)
(10.0357 -0.0120683 0)
(10.0655 -0.012383 0)
(10.09 -0.0186957 0)
(10.0591 0.0231183 0)
(10.1757 0.0144008 0)
(10.2152 0.0268052 0)
(10.2556 0.022781 0)
(10.2671 -0.0187461 0)
(10.2611 -0.0719304 0)
(10.2459 -0.0988875 0)
(10.2241 -0.0787529 0)
(10.1961 -0.020824 0)
(10.1648 0.0439271 0)
(10.1411 0.0853695 0)
(10.1377 0.0909216 0)
(10.1585 0.066767 0)
(10.1975 0.0281485 0)
(10.246 -0.0101915 0)
(10.2944 -0.0415463 0)
(10.3361 -0.0637931 0)
(10.3631 -0.0811731 0)
(10.103 0.0260051 0)
(10.1265 -0.00835863 0)
(10.0405 0.0515031 0)
(9.99075 0.0823814 0)
(10.0296 0.0600402 0)
(10.104 0.0182071 0)
(10.1506 -0.00417134 0)
(10.1523 0.0092475 0)
(10.1343 0.0403483 0)
(10.1296 0.0569976 0)
(10.1553 0.0401799 0)
(10.2074 -0.00666241 0)
(10.2657 -0.0653234 0)
(10.308 -0.11625 0)
(10.3206 -0.145495 0)
(10.3047 -0.149242 0)
(10.2675 -0.129698 0)
(10.2244 -0.0961935 0)
(10.0472 -0.0198336 0)
(10.034 -0.0330421 0)
(10.0461 0.00394185 0)
(10.1051 -0.0265823 0)
(10.1855 -0.100604 0)
(10.2261 -0.128107 0)
(10.2085 -0.0910255 0)
(10.1693 -0.0329618 0)
(10.1456 -0.0036104 0)
(10.146 -0.019552 0)
(10.1596 -0.0625137 0)
(10.1731 -0.100874 0)
(10.1785 -0.110934 0)
(10.1734 -0.0861719 0)
(10.161 -0.0388051 0)
(10.146 0.0107008 0)
(10.1344 0.0444486 0)
(10.1291 0.0493992 0)
(9.90752 0.0664901 0)
(9.8586 0.128507 0)
(9.91627 0.119708 0)
(9.99186 0.0474349 0)
(10.0082 -0.0273792 0)
(9.97702 -0.0489864 0)
(9.95946 -0.0107909 0)
(9.9875 0.0472178 0)
(10.0429 0.0827341 0)
(10.0896 0.0803491 0)
(10.1075 0.0477284 0)
(10.1008 0.000926914 0)
(10.0879 -0.0438973 0)
(10.0847 -0.076603 0)
(10.0983 -0.0931664 0)
(10.1256 -0.096036 0)
(10.1595 -0.0898003 0)
(10.1897 -0.0778196 0)
(9.99315 -0.128352 0)
(10.022 -0.143957 0)
(10.08 -0.134434 0)
(10.1193 -0.113969 0)
(10.0968 -0.0729299 0)
(10.0465 -0.0557042 0)
(10.0125 -0.0665439 0)
(10.0139 -0.0823499 0)
(10.0476 -0.0873098 0)
(10.0966 -0.0828437 0)
(10.1388 -0.078784 0)
(10.1573 -0.0810426 0)
(10.1464 -0.0868873 0)
(10.1116 -0.0878333 0)
(10.0647 -0.0785425 0)
(10.0201 -0.0601961 0)
(9.9864 -0.0383845 0)
(9.9723 -0.0208885 0)
(10.0673 0.0325383 0)
(10.0805 0.045887 0)
(9.99509 0.0394152 0)
(9.9306 0.0193974 0)
(9.93493 -0.0015359 0)
(9.98592 -0.0154492 0)
(10.0442 -0.0142016 0)
(10.086 -0.00653317 0)
(10.1178 -0.00662795 0)
(10.1544 -0.0180783 0)
(10.1951 -0.0330696 0)
(10.2259 -0.042163 0)
(10.2322 -0.0422837 0)
(10.2105 -0.0367475 0)
(10.1707 -0.032117 0)
(10.1293 -0.0329553 0)
(10.1002 -0.041716 0)
(10.092 -0.0569762 0)
(10.0014 -0.0395596 0)
(9.9031 -0.0241231 0)
(9.92053 -0.0399222 0)
(9.95758 -0.0583105 0)
(9.99361 -0.0863564 0)
(10.0325 -0.105269 0)
(10.0794 -0.105089 0)
(10.1253 -0.0959431 0)
(10.1575 -0.0897759 0)
(10.172 -0.0872052 0)
(10.1722 -0.079815 0)
(10.1654 -0.0609194 0)
(10.1584 -0.0329992 0)
(10.1552 -0.00543948 0)
(10.1576 0.0110801 0)
(10.1653 0.0112935 0)
(10.1772 -0.00493924 0)
(10.1894 -0.0326229 0)
(10.2145 0.117572 0)
(10.146 0.0512696 0)
(10.1337 0.0133978 0)
(10.2022 -0.0181238 0)
(10.269 -0.0570931 0)
(10.2565 -0.0810895 0)
(10.1904 -0.0815816 0)
(10.1288 -0.0698844 0)
(10.0975 -0.0597867 0)
(10.0875 -0.0563416 0)
(10.0831 -0.0561704 0)
(10.0805 -0.0543911 0)
(10.086 -0.0497657 0)
(10.1057 -0.0449482 0)
(10.1383 -0.0435763 0)
(10.175 -0.0474162 0)
(10.2067 -0.0561094 0)
(10.2221 -0.0670856 0)
(9.98339 0.0893102 0)
(10.1396 0.0121351 0)
(10.186 -0.0486875 0)
(10.2525 -0.070328 0)
(10.2608 -0.0663098 0)
(10.2024 -0.0517039 0)
(10.1381 -0.046563 0)
(10.105 -0.0574857 0)
(10.0961 -0.0754394 0)
(10.0917 -0.0877619 0)
(10.0831 -0.0877176 0)
(10.0754 -0.0767333 0)
(10.0766 -0.0613169 0)
(10.09 -0.0479123 0)
(10.1104 -0.040188 0)
(10.1298 -0.038874 0)
(10.1399 -0.0424481 0)
(10.1371 -0.0501735 0)
(9.84701 0.00627661 0)
(9.86924 -0.00918454 0)
(9.79899 -0.0493629 0)
(9.60344 -0.0840887 0)
(9.36985 -0.0805442 0)
(9.18169 -0.0535851 0)
(9.0448 -0.033483 0)
(8.91571 -0.0277874 0)
(8.76571 -0.0271092 0)
(8.60021 -0.0249536 0)
(8.43818 -0.0233992 0)
(8.2925 -0.0264824 0)
(8.16359 -0.0344837 0)
(8.04696 -0.0435557 0)
(7.93771 -0.0495962 0)
(7.83436 -0.050693 0)
(7.73514 -0.0477869 0)
(7.63936 -0.0438537 0)
(-0.0999644 0.103261 8.98398e-21)
(-0.296666 0.0834475 -8.90812e-21)
(-0.495803 0.104726 0)
(-0.643606 0.0508386 0)
(-0.662584 -0.0488402 0)
(-0.599625 -0.124454 8.65637e-21)
(-0.491025 -0.172643 0)
(-0.340661 -0.196642 0)
(-0.178619 -0.196401 0)
(-0.0135982 -0.183777 0)
(0.149669 -0.16579 -8.45674e-21)
(0.30544 -0.145573 0)
(0.447213 -0.123128 0)
(0.570252 -0.0984842 0)
(0.673557 -0.0738424 0)
(0.758468 -0.0505168 -8.19668e-21)
(0.825789 -0.0279668 0)
(0.875662 -0.00546159 0)
(0.908152 0.0169304 0)
(0.923975 0.0419425 0)
(0.916191 0.0691118 0)
(0.889908 0.104299 0)
(0.831354 0.140939 0)
(0.755231 0.17284 -7.86859e-21)
(0.628046 0.25001 7.83178e-21)
(0.408426 0.242795 -7.79192e-21)
(0.26977 0.0269658 -7.74709e-21)
(0.252359 -0.187365 0)
(0.244683 -0.291279 0)
(0.225309 -0.32726 7.62816e-21)
(0.311409 -0.324243 7.58886e-21)
(0.447526 -0.260252 0)
(0.546375 -0.177187 0)
(0.632691 -0.110269 7.45648e-21)
(0.729982 -0.0777548 0)
(0.842788 -0.0969365 0)
(0.993802 -0.155974 -7.3082e-21)
(1.19359 -0.204301 0)
(1.41739 -0.203 -7.17429e-21)
(1.62123 -0.164356 -1.42006e-20)
(1.76085 -0.139225 0)
(1.83248 -0.16382 0)
(1.87865 -0.201962 0)
(1.91646 -0.167363 0)
(1.92877 -0.0387941 0)
(1.91514 0.0949456 -1.3322e-20)
(1.89819 0.152154 -1.31724e-20)
(1.89405 0.136392 -1.3022e-20)
(1.91382 0.0929826 0)
(1.95113 0.0574366 1.27248e-20)
(1.98926 0.0432661 0)
(2.00549 0.0505721 -1.24519e-20)
(1.97552 0.0758962 -1.23296e-20)
(1.88368 0.113529 0)
(1.72904 0.154174 0)
(1.52767 0.180064 0)
(1.31391 0.159021 -1.18544e-20)
(1.17247 0.0873533 0)
(1.18103 -0.00487416 0)
(1.26483 -0.0803718 0)
(1.34094 -0.136509 0)
(1.28034 -0.0981862 0)
(1.02905 0.0150462 0)
(0.503045 0.344153 0)
(-0.400403 0.642727 0)
(-1.15374 0.407344 9.75417e-21)
(-1.60429 0.339148 0)
(-2.10806 0.298225 0)
(-2.51572 0.209735 -8.54571e-21)
(-2.88209 0.217765 -8.12727e-21)
(-3.25837 0.197809 0)
(-3.60116 0.171889 7.31826e-21)
(-3.9296 0.162623 -6.94019e-21)
(-4.24379 0.149852 0)
(-4.54177 0.134879 6.27167e-21)
(-4.82119 0.122587 0)
(-5.07858 0.111692 0)
(-5.30996 0.0990314 -5.58916e-21)
(-5.51007 0.0856184 0)
(-5.67451 0.0723612 5.41539e-21)
(-5.79889 0.0580347 0)
(-5.87796 0.0408259 -5.49181e-21)
(-5.90704 0.0202249 -5.61911e-21)
(-5.88369 -0.00262984 -5.79814e-21)
(-5.81035 -0.0266226 -1.20429e-20)
(-5.68679 -0.0510389 1.25589e-20)
(-5.51585 -0.0749137 0)
(-5.30225 -0.0971332 0)
(-5.05117 -0.116703 0)
(-4.76712 -0.133671 1.48737e-20)
(-4.45333 -0.148772 1.54076e-20)
(-4.11096 -0.162572 -1.58871e-20)
(-3.73856 -0.176058 0)
(-3.33053 -0.191607 1.66249e-20)
(-2.87363 -0.212892 1.68503e-20)
(-2.34343 -0.245084 1.69453e-20)
(-1.70212 -0.295249 0)
(-0.907669 -0.36708 0)
(0.0508363 -0.45299 0)
(1.11023 -0.520805 1.42836e-20)
(2.11532 -0.514398 0)
(2.86418 -0.393685 0)
(3.18426 -0.166221 -9.84173e-21)
(2.929 0.108262 0)
(2.07184 0.396296 0)
(0.769936 0.615531 -1.28412e-20)
(-0.56138 0.284001 0)
(-0.888957 0.288445 0)
(-5.00034 1.85287 1.40977e-20)
(-9.49604 1.06668 1.13275e-20)
(-10.4865 0.492531 0)
(-12.0962 0.452108 -5.92277e-21)
(-12.6905 0.148397 0)
(-13.1949 0.151045 2.57076e-21)
(-13.4598 0.0282187 0)
(-13.5096 0.00678329 1.23092e-21)
(-13.502 -0.0417291 1.15014e-21)
(-13.3396 -0.0731656 0)
(-13.1413 -0.0994157 0)
(-12.8335 -0.12854 0)
(-12.484 -0.147999 0)
(-12.0626 -0.170431 0)
(-11.6039 -0.186217 0)
(-11.1039 -0.201879 0)
(-10.5778 -0.214117 7.82724e-21)
(-10.0233 -0.225587 -8.86359e-21)
(-9.43281 -0.237848 0)
(-8.79041 -0.253228 0)
(-8.07594 -0.273608 0)
(-7.27411 -0.298215 0)
(-6.37712 -0.32368 -2.85777e-20)
(-5.39313 -0.343521 0)
(-4.34775 -0.351177 3.3198e-20)
(-3.27954 -0.343492 -3.50064e-20)
(-2.2297 -0.321751 0)
(-1.23745 -0.289215 0)
(-0.335285 -0.249801 0)
(0.457639 -0.209819 3.68725e-20)
(1.1404 -0.177333 3.6276e-20)
(1.72915 -0.156366 0)
(2.25069 -0.145705 3.47425e-20)
(2.7332 -0.141034 3.39415e-20)
(3.19444 -0.137441 -3.31322e-20)
(3.63925 -0.132242 0)
(4.06533 -0.125773 0)
(4.47226 -0.120112 -3.05279e-20)
(4.86652 -0.117255 0)
(5.26111 -0.118416 0)
(5.67124 -0.123206 0)
(6.10813 -0.129525 0)
(6.57512 -0.13484 2.59626e-20)
(7.06649 -0.136916 2.49996e-20)
(7.56798 -0.135424 0)
(8.06295 -0.128561 2.2918e-20)
(8.52717 -0.114225 0)
(8.93724 -0.0959443 0)
(9.27816 -0.0826461 1.98114e-20)
(9.55588 -0.0668559 0)
(9.7163 -0.0123571 1.84152e-20)
(9.64728 0.0670864 0)
(9.36475 0.157816 0)
(8.82292 0.208638 1.79883e-20)
(8.23266 0.227212 0)
(7.44815 0.270911 1.8399e-20)
(6.62387 0.171549 0)
(5.94149 0.414564 0)
(3.65982 0.655265 0)
(1.25252 0.140532 -1.77001e-20)
(0.313803 -0.100165 0)
(-0.244506 -0.00815105 1.42668e-20)
(-0.623855 0.0732886 0)
(-0.900125 0.0873116 0)
(-1.13403 0.0367193 0)
(-1.24485 -0.000677381 0)
(-1.2127 -0.0272217 0)
(-1.06137 -0.0530143 0)
(-0.799904 -0.0601157 0)
(-0.53052 -0.0492725 -2.3874e-20)
(-0.247471 -0.0384226 0)
(-0.0928692 -0.0301178 0)
(-0.0643655 0.480455 -2.68694e-20)
(-0.247656 0.506885 2.66526e-20)
(-0.39669 0.428412 0)
(-0.427205 0.212429 -1.74595e-20)
(-0.357045 -0.0806057 0)
(-0.2879 -0.319959 -8.66245e-21)
(-0.166179 -0.487109 1.71829e-20)
(-0.031479 -0.572422 1.71125e-20)
(0.11417 -0.59423 0)
(0.263089 -0.574348 1.69403e-20)
(0.408069 -0.531545 8.44753e-21)
(0.542411 -0.478557 0)
(0.662687 -0.422383 0)
(0.768319 -0.366235 0)
(0.859932 -0.311668 0)
(0.938778 -0.259955 8.19124e-21)
(1.00513 -0.21126 0)
(1.06205 -0.164905 -1.61653e-20)
(1.10932 -0.119174 0)
(1.15004 -0.0738685 0)
(1.185 -0.0237799 1.59235e-20)
(1.2184 0.0280136 0)
(1.24442 0.0919884 -1.5774e-20)
(1.26383 0.156048 7.85736e-21)
(1.28675 0.224494 -7.81783e-21)
(1.27775 0.319246 7.77399e-21)
(1.31024 0.331348 7.72611e-21)
(1.31235 0.333665 0)
(1.22519 0.371258 0)
(0.969595 0.259986 -7.61301e-21)
(0.705572 0.0174203 7.60178e-21)
(0.575481 -0.174188 0)
(0.551489 -0.262251 0)
(0.590251 -0.267041 -7.45621e-21)
(0.688368 -0.292409 0)
(0.832925 -0.395441 0)
(0.986053 -0.503364 7.30567e-21)
(1.14023 -0.547896 0)
(1.24423 -0.492672 -7.18412e-21)
(1.25936 -0.338931 1.42108e-20)
(1.2498 -0.161067 0)
(1.25786 -0.0311615 0)
(1.26714 0.0316842 2.75964e-20)
(1.29328 0.0418968 2.72933e-20)
(1.36419 0.0170091 2.69819e-20)
(1.47687 -0.0330209 -1.33301e-20)
(1.60928 -0.0938639 1.31799e-20)
(1.74272 -0.143165 3.90506e-20)
(1.8651 -0.16333 -2.57059e-20)
(1.97207 -0.145965 -1.27231e-20)
(2.05054 -0.0913157 0)
(2.08841 -0.00409475 1.245e-20)
(2.08076 0.105705 -1.2272e-20)
(2.02323 0.219186 0)
(1.90585 0.31864 0)
(1.72927 0.391436 0)
(1.50541 0.409414 1.18448e-20)
(1.27688 0.311614 0)
(1.05964 0.0610175 -2.30858e-20)
(0.650043 0.0970591 0)
(0.0552766 0.483056 -2.20177e-20)
(-0.64766 0.877718 0)
(-1.28164 1.1321 2.08363e-20)
(-1.79877 1.1865 0)
(-2.35269 1.0751 -1.97555e-20)
(-2.80366 0.903501 9.37426e-21)
(-3.14737 0.836219 0)
(-3.54451 0.736733 1.75837e-20)
(-3.91518 0.679165 8.51819e-21)
(-4.28373 0.6631 8.10171e-21)
(-4.64578 0.634756 0)
(-5.00073 0.6087 7.03751e-21)
(-5.33928 0.579579 6.91946e-21)
(-5.65869 0.549969 0)
(-5.96166 0.518489 -6.25353e-21)
(-6.23951 0.476963 1.16595e-20)
(-6.48394 0.425441 0)
(-6.69115 0.366479 5.57458e-21)
(-6.8585 0.300713 0)
(-6.98103 0.227219 -1.59154e-20)
(-7.05414 0.146213 0)
(-7.07745 0.0611662 1.61874e-20)
(-7.05337 -0.0237999 5.60863e-21)
(-6.98459 -0.106324 -5.5891e-21)
(-6.86942 -0.184773 -1.16853e-20)
(-6.71141 -0.25708 1.22601e-20)
(-6.51436 -0.321794 0)
(-6.28214 -0.378984 0)
(-6.01788 -0.429658 0)
(-5.72515 -0.475144 -4.44346e-20)
(-5.4074 -0.517239 -1.53778e-20)
(-5.06577 -0.559251 1.5856e-20)
(-4.69802 -0.606898 0)
(-4.29779 -0.668548 1.65172e-20)
(-3.8516 -0.755979 -1.68143e-20)
(-3.33518 -0.884736 -1.6907e-20)
(-2.71245 -1.07027 0)
(-1.94506 -1.31511 0)
(-1.02737 -1.58206 0)
(-0.0368612 -1.76232 -1.42733e-20)
(0.857456 -1.68951 0)
(1.4643 -1.25107 2.0034e-20)
(1.64616 -0.522009 2.75822e-20)
(1.39824 0.304481 -1.79282e-20)
(0.777359 0.863952 0)
(0.0022076 0.904431 -1.09385e-20)
(-3.35696 2.30412 0)
(-7.16813 3.80359 -2.54295e-20)
(-9.72769 3.4749 8.77198e-21)
(-11.1535 2.09793 6.70355e-21)
(-11.2291 1.41611 0)
(-12.03 0.932001 1.55333e-20)
(-12.0336 0.489074 -6.40971e-21)
(-12.4108 0.310775 -2.57271e-21)
(-12.4097 0.0815715 0)
(-12.4796 -0.0299073 -1.23262e-21)
(-12.3963 -0.155678 -2.93196e-21)
(-12.2377 -0.247781 0)
(-12.0121 -0.331745 -3.40026e-21)
(-11.6964 -0.40741 -4.90521e-21)
(-11.3386 -0.469426 -6.74995e-21)
(-10.9101 -0.526242 0)
(-10.4519 -0.570541 0)
(-9.95313 -0.608938 0)
(-9.43644 -0.639654 7.64125e-21)
(-8.89613 -0.668967 8.86971e-21)
(-8.32728 -0.703308 0)
(-7.71129 -0.751547 2.14322e-20)
(-7.02627 -0.820264 2.34566e-20)
(-6.25246 -0.907826 0)
(-5.37689 -1.0033 2.85815e-20)
(-4.4023 -1.08557 6.08525e-20)
(-3.35325 -1.13064 -3.31959e-20)
(-2.27061 -1.12456 -3.41236e-20)
(-1.19675 -1.06676 0)
(-0.173484 -0.963679 0)
(0.759624 -0.830467 0)
(1.57551 -0.693449 -3.68014e-20)
(2.26851 -0.579346 3.58406e-20)
(2.85767 -0.502555 7.06281e-20)
(3.37682 -0.461291 -3.46854e-20)
(3.85821 -0.442426 3.36607e-20)
(4.32016 -0.430089 3.30797e-20)
(4.76535 -0.414652 0)
(5.18933 -0.396129 0)
(5.59053 -0.380608 -3.03359e-20)
(5.97616 -0.374429 0)
(6.36103 -0.380394 0)
(6.76105 -0.396566 5.53697e-20)
(7.18806 -0.417199 0)
(7.64647 -0.435119 2.5782e-20)
(8.13182 -0.442901 -2.49634e-20)
(8.62756 -0.434945 0)
(9.10753 -0.408502 2.27004e-20)
(9.55193 -0.364114 0)
(9.9506 -0.30685 0)
(10.2754 -0.245163 -1.97899e-20)
(10.4485 -0.176384 3.7714e-20)
(10.4948 -0.0707552 -1.84024e-20)
(10.4718 0.0668719 0)
(10.4172 0.217727 0)
(10.2762 0.347032 1.76381e-20)
(10.0059 0.429497 0)
(9.66839 0.541224 1.79585e-20)
(9.01358 0.568877 0)
(8.50835 0.743364 0)
(7.522 1.19862 0)
(5.91907 1.36281 1.76098e-20)
(4.48442 1.08945 0)
(2.65055 0.499987 -1.42286e-20)
(0.774363 0.0767659 0)
(0.0656259 -0.0162692 0)
(-0.102947 -0.0363826 2.38701e-20)
(-0.207256 -0.04482 -2.33221e-20)
(-0.189354 -0.099178 0)
(-0.101022 -0.1815 0)
(0.0698587 -0.215453 0)
(0.240499 -0.197471 7.16385e-20)
(0.472462 -0.153536 0)
(0.576327 -0.103796 -4.80978e-20)
(-0.00601375 0.747776 7.29061e-23)
(-0.0846951 0.777511 -3.54245e-20)
(-0.166425 0.617012 0)
(-0.121916 0.271889 3.48876e-20)
(-0.0406147 -0.146124 0)
(0.0522537 -0.496938 0)
(0.153188 -0.721155 -6.27079e-23)
(0.259796 -0.820627 -1.70967e-20)
(0.36746 -0.831201 -1.69469e-20)
(0.471682 -0.789544 -1.69252e-20)
(0.569318 -0.7208 0)
(0.658219 -0.640468 0)
(0.737383 -0.557387 1.65751e-20)
(0.806306 -0.476659 3.29595e-20)
(0.865017 -0.400967 -3.27727e-20)
(0.914287 -0.331669 0)
(0.955289 -0.269137 -3.2418e-20)
(0.989762 -0.213406 1.61667e-20)
(1.02029 -0.163214 0)
(1.04975 -0.11736 -3.19467e-20)
(1.0801 -0.0740346 -1.59274e-20)
(1.11522 -0.033214 3.16643e-20)
(1.15987 0.010176 1.57787e-20)
(1.21136 0.0563752 0)
(1.27752 0.104526 -3.12438e-20)
(1.34023 0.161712 -3.1099e-20)
(1.41289 0.19715 0)
(1.45149 0.215676 -3.08106e-20)
(1.44378 0.23509 0)
(1.44476 0.278512 -3.05276e-20)
(1.42868 0.327884 -1.51552e-20)
(1.27551 0.221605 0)
(1.10112 -0.051075 0)
(1.00403 -0.244097 0)
(0.985935 -0.370793 0)
(1.05088 -0.542164 0)
(1.07754 -0.593033 0)
(1.01771 -0.449237 -2.90696e-20)
(0.917998 -0.252262 4.3186e-20)
(0.842419 -0.132117 0)
(0.850475 -0.121142 0)
(0.936929 -0.175666 0)
(1.07008 -0.242459 4.0372e-23)
(1.22545 -0.289925 -2.72939e-20)
(1.38385 -0.307502 -5.39553e-20)
(1.52861 -0.299231 5.32941e-20)
(1.65722 -0.279996 2.62949e-20)
(1.79051 -0.266299 -2.60117e-20)
(1.94193 -0.248352 9.61986e-23)
(2.09082 -0.193801 -2.52543e-20)
(2.19503 -0.0793898 0)
(2.22421 0.0884486 -2.46889e-20)
(2.16009 0.289416 1.23944e-22)
(2.00621 0.504511 0)
(1.7876 0.689647 0)
(1.51465 0.79758 2.39724e-20)
(1.18198 0.802634 0)
(0.806473 0.637142 0)
(0.144525 0.624385 -2.31917e-20)
(-0.662427 0.997191 -4.51353e-20)
(-1.35679 1.40146 2.19584e-20)
(-1.99169 1.69419 0)
(-2.40565 1.77711 -2.07829e-20)
(-2.62557 1.65872 0)
(-2.86422 1.50931 -1.88354e-20)
(-3.13457 1.40428 -1.90632e-20)
(-3.44041 1.31874 3.57886e-20)
(-3.78939 1.21253 1.66982e-20)
(-4.15455 1.1559 0)
(-4.52804 1.1213 -3.10261e-20)
(-4.89433 1.06906 0)
(-5.25489 1.01325 -4.20997e-20)
(-5.5956 0.956078 -2.62359e-20)
(-5.91701 0.897876 -2.47894e-20)
(-6.21816 0.832071 2.34776e-20)
(-6.48885 0.752692 -3.39848e-20)
(-6.72425 0.661303 0)
(-6.92256 0.5609 0)
(-7.07745 0.450844 2.0248e-20)
(-7.18262 0.329719 3.05886e-20)
(-7.23685 0.201077 0)
(-7.24057 0.0698014 -1.07037e-20)
(-7.19348 -0.0620925 0)
(-7.09608 -0.192363 3.34697e-20)
(-6.95215 -0.316503 5.49385e-22)
(-6.76656 -0.430295 -4.51149e-22)
(-6.54436 -0.531897 -2.56072e-20)
(-6.29055 -0.620817 0)
(-6.01037 -0.697279 2.82042e-20)
(-5.70904 -0.762946 1.40907e-22)
(-5.39104 -0.821617 0)
(-5.05979 -0.879192 0)
(-4.71735 -0.944224 0)
(-4.36334 -1.02951 -3.30847e-20)
(-3.99244 -1.15365 0)
(-3.59093 -1.34081 0)
(-3.13346 -1.61435 0)
(-2.58952 -1.97486 0)
(-1.95829 -2.35289 0)
(-1.32148 -2.56047 -2.78557e-20)
(-0.829062 -2.33059 0)
(-0.585162 -1.52501 -2.00579e-20)
(-0.620932 -0.332076 -1.77498e-20)
(-1.02893 0.969594 1.79215e-20)
(-2.02797 2.27741 0)
(-4.22657 3.77648 2.3553e-20)
(-7.46248 5.31178 0)
(-9.53183 5.58262 2.52862e-20)
(-9.82229 4.17022 -2.27197e-20)
(-9.87636 2.78999 -4.52269e-20)
(-10.0339 2.02451 0)
(-10.4214 1.30783 -2.40582e-20)
(-10.5576 0.813892 -2.91726e-21)
(-10.8648 0.48917 0)
(-10.9044 0.174924 -3.01964e-21)
(-10.9762 -0.022948 -1.92356e-21)
(-10.884 -0.229835 3.82614e-21)
(-10.7446 -0.382012 0)
(-10.5114 -0.528024 3.40535e-21)
(-10.2093 -0.650472 4.91208e-21)
(-9.84814 -0.756057 1.93417e-20)
(-9.42958 -0.846811 0)
(-8.98026 -0.917241 0)
(-8.50428 -0.975451 0)
(-8.02411 -1.02001 1.49677e-20)
(-7.53995 -1.06202 0)
(-7.04846 -1.11267 0)
(-6.52884 -1.18912 -2.14469e-20)
(-5.95371 -1.30592 -2.3468e-20)
(-5.29523 -1.46442 0)
(-4.52857 -1.64713 0)
(-3.64271 -1.81569 -6.0836e-20)
(-2.65749 -1.92277 0)
(-1.6142 -1.94085 6.90924e-20)
(-0.553665 -1.86425 7.05366e-20)
(0.486011 -1.69991 0)
(1.45819 -1.47568 0)
(2.32021 -1.23641 -7.22944e-20)
(3.05428 -1.02786 -6.62984e-22)
(3.67594 -0.878513 -5.7162e-22)
(4.22273 -0.791017 0)
(4.73397 -0.745705 -1.34499e-19)
(5.23216 -0.714523 0)
(5.71755 -0.678422 0)
(6.1776 -0.636077 0)
(6.60265 -0.598981 6.07312e-20)
(6.99553 -0.580199 0)
(7.37126 -0.586045 -1.13763e-19)
(7.75052 -0.613718 -5.52929e-20)
(8.15204 -0.653059 0)
(8.58758 -0.690372 -5.16355e-20)
(9.05808 -0.710613 0)
(9.55099 -0.701082 0)
(10.0422 -0.659609 -1.35955e-19)
(10.5107 -0.591255 8.5944e-20)
(10.9451 -0.491197 0)
(11.3249 -0.336132 7.75502e-20)
(11.5577 -0.138896 -3.76732e-20)
(11.5415 0.0518942 0)
(11.2755 0.206844 0)
(10.8789 0.339052 0)
(10.4973 0.479718 -1.05844e-19)
(10.0988 0.59541 0)
(9.75135 0.756918 -3.62927e-20)
(9.27869 0.911413 0)
(8.76225 1.09424 0)
(8.374 1.56086 0)
(7.8387 1.96027 0)
(7.13816 1.87087 0)
(6.07553 1.43977 0)
(4.79136 1.02416 -5.20455e-20)
(3.74539 0.664765 0)
(2.7307 0.311356 -2.38072e-20)
(1.86088 0.0431096 6.98463e-20)
(1.52267 -0.121876 0)
(1.38296 -0.214062 0)
(1.26783 -0.236786 -4.71605e-20)
(1.18306 -0.230571 -4.77226e-20)
(1.19335 -0.209026 4.80738e-20)
(1.16071 -0.163017 4.8072e-20)
(0.0444096 0.726051 5.33403e-20)
(0.0488097 0.840162 5.29378e-20)
(0.00966905 0.729779 3.50048e-20)
(0.0994931 0.314831 1.7354e-20)
(0.236813 -0.226975 0)
(0.367007 -0.650678 -3.42846e-20)
(0.472778 -0.888017 1.69889e-20)
(0.559679 -0.974548 0)
(0.636197 -0.966785 1.69289e-20)
(0.706421 -0.909027 0)
(0.770739 -0.826801 -3.3347e-20)
(0.828569 -0.733273 0)
(0.879367 -0.635427 -1.65658e-20)
(0.922236 -0.537922 -3.2944e-20)
(0.956319 -0.4444 3.27603e-20)
(0.98101 -0.357607 0)
(0.996947 -0.279463 3.24121e-20)
(1.00541 -0.210814 0)
(1.0085 -0.152062 0)
(1.00866 -0.101914 3.1949e-20)
(1.01012 -0.0607909 0)
(1.01495 -0.0255698 -3.92477e-23)
(1.0285 0.00406787 0)
(1.05055 0.0292333 0)
(1.08863 0.0540811 -1.85919e-23)
(1.13503 0.0732102 3.11209e-20)
(1.19985 0.0984255 3.1031e-20)
(1.27609 0.13702 3.0826e-20)
(1.33797 0.177089 0)
(1.39829 0.240585 6.11458e-20)
(1.43704 0.312318 0)
(1.4153 0.304346 3.03271e-20)
(1.34846 0.199533 0)
(1.23714 0.00706941 0)
(1.15999 -0.297324 -2.98456e-20)
(1.11754 -0.556919 0)
(1.0179 -0.541933 2.94286e-20)
(0.901682 -0.344618 -1.16617e-22)
(0.842111 -0.216554 -5.7752e-20)
(0.867132 -0.231268 5.72936e-20)
(0.966467 -0.321201 0)
(1.10409 -0.410988 0)
(1.24353 -0.462602 2.77288e-20)
(1.36191 -0.468612 0)
(1.44957 -0.433522 2.69666e-20)
(1.53379 -0.401342 -2.66245e-20)
(1.68245 -0.445767 -2.6275e-20)
(1.91457 -0.544666 0)
(2.17423 -0.591239 2.55613e-20)
(2.38286 -0.505039 2.5223e-20)
(2.48247 -0.287291 -4.92311e-20)
(2.46057 0.0295192 2.46699e-20)
(2.3286 0.376151 2.44469e-20)
(2.07874 0.704561 0)
(1.7251 1.01347 0)
(1.28675 1.2561 -2.39645e-20)
(0.788244 1.34775 0)
(0.192245 1.31284 0)
(-0.647697 1.50841 4.62175e-20)
(-1.37118 1.82094 4.50237e-20)
(-1.84685 2.02122 0)
(-2.23326 2.13509 0)
(-2.49135 2.09422 0)
(-2.67848 1.95658 0)
(-2.91526 1.86905 3.85435e-20)
(-3.19676 1.82711 -3.62396e-20)
(-3.52315 1.76489 -3.5761e-20)
(-3.88858 1.68057 -6.74288e-20)
(-4.26718 1.62613 0)
(-4.63982 1.57559 1.09673e-21)
(-5.00779 1.51288 0)
(-5.36818 1.43875 2.77584e-20)
(-5.71174 1.35438 1.2206e-21)
(-6.04206 1.27208 2.47705e-20)
(-6.34953 1.17547 -2.34607e-20)
(-6.62475 1.05281 1.35238e-21)
(-6.86773 0.915139 0)
(-7.07121 0.764163 -1.93e-20)
(-7.22507 0.594231 -2.02387e-20)
(-7.32666 0.410025 -3.88284e-20)
(-7.37552 0.220329 0)
(-7.36968 0.0292005 1.94282e-20)
(-7.30899 -0.160243 0)
(-7.19613 -0.342439 -4.32657e-20)
(-7.03564 -0.511555 2.31375e-20)
(-6.83219 -0.664097 -2.43233e-20)
(-6.59111 -0.798443 2.55949e-20)
(-6.3187 -0.91372 5.30603e-20)
(-6.02174 -1.0098 -2.81902e-20)