/*--------------------------------*- C++ -*----------------------------------*\
  =========                 |
  \\      /  F ield         | OpenFOAM: The Open Source CFD Toolbox
   \\    /   O peration     | Website:  https://openfoam.org
    \\  /    A nd           | Version:  6
     \\/     M anipulation  |
\*---------------------------------------------------------------------------*/
FoamFile
{
    version     2.0;
    format      ascii;
    class       volVectorField;
    location    "0.1";
    object      UMean;
}
// * * * * * * * * * * * * * * * * * * * * * * * * * * * * * * * * * * * * * //

dimensions      [0 1 -1 0 0 0 0];

internalField   nonuniform List<vector> 
12225
(
(9.83598 0.0177675 0)
(9.5401 0.032006 0)
(9.24771 0.0350296 0)
(8.95071 0.0363924 0)
(8.65625 0.0376639 0)
(8.37079 0.0388151 0)
(8.09711 0.0392962 0)
(7.83405 0.0398736 0)
(7.58097 0.0396784 0)
(7.33513 0.0405065 0)
(7.09716 0.0398445 0)
(6.86286 0.0420371 0)
(6.63405 0.0408297 0)
(6.40278 0.0466563 0)
(6.1721 0.044587 0)
(5.92878 0.0584214 0)
(5.67714 0.0544456 0)
(5.38873 0.0696207 0)
(9.99929 0.0400237 0)
(10.0644 0.0689017 0)
(10.1101 0.0741068 0)
(10.1285 0.0761902 0)
(10.1273 0.0792014 0)
(10.1144 0.0820881 0)
(10.0934 0.0845427 0)
(10.0659 0.0863439 0)
(10.0316 0.0884562 0)
(9.99132 0.0902174 0)
(9.94405 0.0931102 0)
(9.89181 0.095497 0)
(9.8318 0.100372 0)
(9.76721 0.104678 0)
(9.6923 0.113859 0)
(9.6113 0.122387 0)
(9.51664 0.136192 0)
(9.4012 0.142765 0)
(10.0048 0.0350603 0)
(10.0368 0.062775 0)
(10.0695 0.0656302 0)
(10.0903 0.0655564 0)
(10.1021 0.0678066 0)
(10.1105 0.0710786 0)
(10.1183 0.0740743 0)
(10.1254 0.0768884 0)
(10.1316 0.0797234 0)
(10.1356 0.0830917 0)
(10.1381 0.0869314 0)
(10.1376 0.0918119 0)
(10.1365 0.0978995 0)
(10.1316 0.105895 0)
(10.1286 0.116796 0)
(10.1207 0.129435 0)
(10.1191 0.14531 0)
(10.1062 0.150723 0)
(10.0058 0.0278439 0)
(10.0301 0.0541103 0)
(10.0577 0.0584091 0)
(10.0759 0.0589199 0)
(10.0855 0.0617055 0)
(10.0912 0.0657081 0)
(10.0964 0.069541 0)
(10.1016 0.073013 0)
(10.1066 0.0765433 0)
(10.1106 0.0804754 0)
(10.1137 0.0850758 0)
(10.1157 0.0906341 0)
(10.1172 0.0974933 0)
(10.1184 0.106266 0)
(10.1206 0.117139 0)
(10.1246 0.130236 0)
(10.1315 0.143246 0)
(10.1412 0.153309 0)
(9.98745 0.0238372 0)
(10.007 0.0501043 0)
(10.0319 0.0575476 0)
(10.0503 0.059718 0)
(10.0607 0.0630891 0)
(10.0669 0.0675216 0)
(10.072 0.07177 0)
(10.0771 0.0755195 0)
(10.0819 0.0792117 0)
(10.0859 0.0832103 0)
(10.089 0.0879482 0)
(10.0914 0.0935288 0)
(10.0932 0.100491 0)
(10.0952 0.108842 0)
(10.0977 0.119088 0)
(10.102 0.130316 0)
(10.1078 0.141675 0)
(10.1164 0.151433 0)
(9.98855 0.0108315 0)
(10.0026 0.0371512 0)
(10.0236 0.0479544 0)
(10.0407 0.0522512 0)
(10.051 0.0562657 0)
(10.0571 0.0610376 0)
(10.0619 0.0657619 0)
(10.0668 0.0700684 0)
(10.0713 0.0742227 0)
(10.0752 0.0786533 0)
(10.0783 0.0837113 0)
(10.0808 0.0896596 0)
(10.083 0.0967386 0)
(10.0854 0.105101 0)
(10.0884 0.114681 0)
(10.0926 0.125027 0)
(10.0977 0.135281 0)
(10.1044 0.144563 0)
(9.98739 0.0134488 0)
(9.99769 0.0364345 0)
(10.0156 0.0480585 0)
(10.0314 0.0531367 0)
(10.0415 0.0569378 0)
(10.0476 0.061273 0)
(10.0523 0.0658375 0)
(10.0569 0.0702196 0)
(10.0614 0.0745238 0)
(10.0655 0.0790907 0)
(10.0689 0.0842504 0)
(10.0718 0.0902262 0)
(10.0744 0.097171 0)
(10.0773 0.105145 0)
(10.0807 0.113989 0)
(10.0852 0.123408 0)
(10.0904 0.132741 0)
(10.0967 0.141618 0)
(9.98451 0.0149554 0)
(9.99264 0.0339235 0)
(10.008 0.0455607 0)
(10.0225 0.0512169 0)
(10.0326 0.0549757 0)
(10.039 0.0590199 0)
(10.0438 0.0634695 0)
(10.0484 0.06795 0)
(10.0529 0.0724203 0)
(10.0572 0.0771429 0)
(10.0611 0.0823993 0)
(10.0646 0.0884019 0)
(10.0681 0.0952118 0)
(10.0718 0.102859 0)
(10.076 0.11113 0)
(10.0809 0.11988 0)
(10.0865 0.128578 0)
(10.0929 0.13719 0)
(10 0.0104863 0)
(10.0076 0.0277186 0)
(10.0214 0.0396429 0)
(10.0345 0.0463876 0)
(10.044 0.0509336 0)
(10.0502 0.0554204 0)
(10.0548 0.0602709 0)
(10.059 0.0652065 0)
(10.0632 0.0700973 0)
(10.0673 0.0751285 0)
(10.0711 0.0805519 0)
(10.0746 0.0865928 0)
(10.0781 0.0932873 0)
(10.0818 0.10067 0)
(10.0861 0.108518 0)
(10.0909 0.116784 0)
(10.0964 0.125009 0)
(10.1024 0.133367 0)
(10.0015 0.00595653 0)
(10.0079 0.0229563 0)
(10.0198 0.0350727 0)
(10.0317 0.0426487 0)
(10.0409 0.0478126 0)
(10.0475 0.0524694 0)
(10.0527 0.0573113 0)
(10.0576 0.0622876 0)
(10.0626 0.0672922 0)
(10.0676 0.0724304 0)
(10.0724 0.0778793 0)
(10.077 0.0838189 0)
(10.0815 0.0902729 0)
(10.0862 0.0972798 0)
(10.0912 0.104656 0)
(10.0967 0.112416 0)
(10.1025 0.120184 0)
(10.1089 0.128195 0)
(9.9931 0.00430445 0)
(9.99858 0.0207506 0)
(10.0093 0.0326296 0)
(10.0202 0.0407037 0)
(10.029 0.0464185 0)
(10.0356 0.051289 0)
(10.041 0.0560927 0)
(10.046 0.060974 0)
(10.0511 0.0659047 0)
(10.0563 0.0709738 0)
(10.0613 0.0763138 0)
(10.0663 0.0820766 0)
(10.0712 0.0882571 0)
(10.0765 0.0948908 0)
(10.082 0.101785 0)
(10.0882 0.109003 0)
(10.0945 0.116184 0)
(10.1018 0.123635 0)
(9.99778 0.00174419 0)
(10.0012 0.0165097 0)
(10.0101 0.0276742 0)
(10.0195 0.0357766 0)
(10.0273 0.0418136 0)
(10.0335 0.0469386 0)
(10.0387 0.0518903 0)
(10.0436 0.0569208 0)
(10.0485 0.0620222 0)
(10.0535 0.0672316 0)
(10.0583 0.0726019 0)
(10.0632 0.0782829 0)
(10.0681 0.0842612 0)
(10.0734 0.0906414 0)
(10.0788 0.0972045 0)
(10.0848 0.104104 0)
(10.0909 0.110884 0)
(10.098 0.117993 0)
(9.98724 0.00561042 0)
(9.99011 0.0169185 0)
(9.99841 0.0265836 0)
(10.0075 0.0341118 0)
(10.0153 0.0399384 0)
(10.0216 0.044865 0)
(10.0272 0.0495468 0)
(10.0325 0.054308 0)
(10.0379 0.0592056 0)
(10.0434 0.0642719 0)
(10.0488 0.0695079 0)
(10.0541 0.0750047 0)
(10.0595 0.0807132 0)
(10.0651 0.0867124 0)
(10.0709 0.0928061 0)
(10.0772 0.0991417 0)
(10.0837 0.105335 0)
(10.0909 0.111779 0)
(9.98981 0.00670049 0)
(9.99275 0.0162926 0)
(10.0003 0.025076 0)
(10.0084 0.0322423 0)
(10.0156 0.037999 0)
(10.0219 0.042937 0)
(10.0277 0.0475844 0)
(10.0332 0.0522545 0)
(10.0386 0.0570259 0)
(10.0441 0.0619368 0)
(10.0496 0.0669617 0)
(10.0552 0.0721746 0)
(10.061 0.0775045 0)
(10.0669 0.0830555 0)
(10.0732 0.0886207 0)
(10.0797 0.0944128 0)
(10.0865 0.0999982 0)
(10.0938 0.105881 0)
(9.99301 -0.00258273 0)
(9.99627 0.00725693 0)
(10.0034 0.0157402 0)
(10.0108 0.0228211 0)
(10.0174 0.0287798 0)
(10.0233 0.0340492 0)
(10.029 0.0390207 0)
(10.0347 0.0439476 0)
(10.0405 0.0488998 0)
(10.0464 0.0538972 0)
(10.0524 0.0589015 0)
(10.0584 0.0639676 0)
(10.0645 0.069044 0)
(10.0709 0.0742333 0)
(10.0774 0.0793739 0)
(10.0842 0.0846509 0)
(10.0912 0.089697 0)
(10.0986 0.0949347 0)
(10.0008 0.000920772 0)
(10.0034 0.0095129 0)
(10.0097 0.0170794 0)
(10.0164 0.0235696 0)
(10.0223 0.0290329 0)
(10.0278 0.0338003 0)
(10.0332 0.0382507 0)
(10.0388 0.0426459 0)
(10.0446 0.0470546 0)
(10.0506 0.0514934 0)
(10.0567 0.0559107 0)
(10.0629 0.0603592 0)
(10.0693 0.0647791 0)
(10.0758 0.0692854 0)
(10.0825 0.0737052 0)
(10.0894 0.0782449 0)
(10.0964 0.0825146 0)
(10.1037 0.0869781 0)
(9.99526 -0.00224435 0)
(9.9964 0.00452426 0)
(10.0019 0.010477 0)
(10.008 0.0156112 0)
(10.0136 0.0200902 0)
(10.0189 0.0242004 0)
(10.0245 0.0281732 0)
(10.0303 0.0321471 0)
(10.0365 0.0361409 0)
(10.0429 0.0401608 0)
(10.0494 0.04415 0)
(10.0561 0.0481401 0)
(10.0628 0.052054 0)
(10.0697 0.0559877 0)
(10.0767 0.0597801 0)
(10.0839 0.0636306 0)
(10.0912 0.0671892 0)
(10.0988 0.0708945 0)
(10.002 0.00060598 0)
(10.0035 0.00459001 0)
(10.009 0.00827831 0)
(10.015 0.011821 0)
(10.0206 0.0152341 0)
(10.026 0.0185636 0)
(10.0317 0.0218667 0)
(10.0376 0.025195 0)
(10.0439 0.0285398 0)
(10.0503 0.031901 0)
(10.057 0.0352293 0)
(10.0637 0.0385452 0)
(10.0706 0.0417753 0)
(10.0776 0.0449871 0)
(10.0847 0.0480351 0)
(10.0919 0.0510778 0)
(10.0991 0.0538235 0)
(10.1066 0.0566411 0)
(9.9976 -0.000108706 0)
(9.99892 0.00190286 0)
(10.0039 0.00384955 0)
(10.0095 0.00587504 0)
(10.0149 0.0080259 0)
(10.0204 0.0102754 0)
(10.0262 0.0125873 0)
(10.0324 0.0149498 0)
(10.039 0.0173438 0)
(10.0458 0.0197782 0)
(10.0528 0.0222108 0)
(10.0599 0.0246387 0)
(10.067 0.0269683 0)
(10.0742 0.0292363 0)
(10.0814 0.0313162 0)
(10.0887 0.0333653 0)
(10.096 0.0351582 0)
(10.1034 0.0370403 0)
(9.99185 -0.00470212 0)
(9.99358 -0.00459325 0)
(9.99922 -0.00434976 0)
(10.0055 -0.00376109 0)
(10.0115 -0.00277468 0)
(10.0174 -0.00147113 0)
(10.0233 4.39598e-05 0)
(10.0295 0.00170234 0)
(10.036 0.00343852 0)
(10.0427 0.00522088 0)
(10.0496 0.0069953 0)
(10.0566 0.00876121 0)
(10.0638 0.0104543 0)
(10.071 0.0121139 0)
(10.0782 0.013637 0)
(10.0854 0.0151358 0)
(10.0925 0.0164185 0)
(10.0996 0.0177405 0)
(10.0068 -0.00212225 0)
(10.0081 -0.0047547 0)
(10.0137 -0.00651909 0)
(10.0202 -0.00734452 0)
(10.0264 -0.00732516 0)
(10.0323 -0.00672393 0)
(10.0383 -0.00582504 0)
(10.0445 -0.00480977 0)
(10.0511 -0.00376817 0)
(10.058 -0.00271651 0)
(10.0649 -0.00166998 0)
(10.072 -0.000607022 0)
(10.079 0.000441791 0)
(10.086 0.00150786 0)
(10.0929 0.00251398 0)
(10.0997 0.00352606 0)
(10.1065 0.00439753 0)
(10.1131 0.00529367 0)
(10.0073 -0.00181678 0)
(10.0095 -0.00724283 0)
(10.0164 -0.010973 0)
(10.0244 -0.0131086 0)
(10.0318 -0.013979 0)
(10.0386 -0.0141053 0)
(10.045 -0.0139155 0)
(10.0516 -0.0136002 0)
(10.0584 -0.0131997 0)
(10.0655 -0.0126929 0)
(10.0726 -0.0120882 0)
(10.0797 -0.0113847 0)
(10.0867 -0.0106324 0)
(10.0936 -0.00983028 0)
(10.1005 -0.00906403 0)
(10.1072 -0.00829958 0)
(10.1139 -0.00767473 0)
(10.1206 -0.00706343 0)
(9.99465 -0.00356341 0)
(9.99821 -0.0107376 0)
(10.0067 -0.0158032 0)
(10.0159 -0.0184958 0)
(10.0241 -0.019443 0)
(10.031 -0.019603 0)
(10.0375 -0.0195893 0)
(10.0441 -0.0195517 0)
(10.0511 -0.0194253 0)
(10.0583 -0.0191361 0)
(10.0656 -0.0186976 0)
(10.0727 -0.0181552 0)
(10.0797 -0.0175973 0)
(10.0867 -0.0170579 0)
(10.0936 -0.0166185 0)
(10.1004 -0.0162406 0)
(10.1071 -0.0160086 0)
(10.1137 -0.0157908 0)
(10.0004 -0.00667013 0)
(10.0051 -0.0158776 0)
(10.0154 -0.022178 0)
(10.0264 -0.0251984 0)
(10.0356 -0.0262819 0)
(10.0431 -0.0267528 0)
(10.0499 -0.027158 0)
(10.0569 -0.0275091 0)
(10.0642 -0.0277062 0)
(10.0716 -0.0277148 0)
(10.079 -0.0275813 0)
(10.0862 -0.0273502 0)
(10.0933 -0.0270757 0)
(10.1003 -0.026769 0)
(10.1073 -0.0264837 0)
(10.114 -0.0262057 0)
(10.1207 -0.0260124 0)
(10.1272 -0.0258381 0)
(9.99834 -0.00878146 0)
(10.004 -0.0200462 0)
(10.0161 -0.0263525 0)
(10.0285 -0.0286559 0)
(10.0382 -0.0295629 0)
(10.0458 -0.030435 0)
(10.0527 -0.0313207 0)
(10.0599 -0.031942 0)
(10.0675 -0.0322184 0)
(10.0751 -0.0322492 0)
(10.0826 -0.0321715 0)
(10.0899 -0.0320573 0)
(10.097 -0.0319469 0)
(10.1041 -0.0318361 0)
(10.111 -0.0317646 0)
(10.118 -0.0317149 0)
(10.1248 -0.031752 0)
(10.1314 -0.0318029 0)
(9.98628 -0.011449 0)
(9.99406 -0.0264574 0)
(10.0089 -0.0323794 0)
(10.0231 -0.0336972 0)
(10.0334 -0.0344191 0)
(10.0411 -0.0355969 0)
(10.0481 -0.0368229 0)
(10.0555 -0.0376969 0)
(10.0631 -0.0381839 0)
(10.0708 -0.0384187 0)
(10.0783 -0.0385295 0)
(10.0856 -0.038582 0)
(10.0927 -0.038613 0)
(10.0996 -0.038634 0)
(10.1065 -0.0386714 0)
(10.1133 -0.0387203 0)
(10.12 -0.0388109 0)
(10.1265 -0.0389104 0)
(9.99269 -0.014859 0)
(10.0054 -0.0343393 0)
(10.0242 -0.0390516 0)
(10.0396 -0.0389472 0)
(10.0498 -0.0392604 0)
(10.0573 -0.0404715 0)
(10.0645 -0.0417435 0)
(10.0722 -0.042634 0)
(10.0802 -0.0431825 0)
(10.0881 -0.0435619 0)
(10.0958 -0.0438895 0)
(10.1033 -0.0442065 0)
(10.1106 -0.0445304 0)
(10.1178 -0.044856 0)
(10.1249 -0.0452031 0)
(10.1318 -0.0455506 0)
(10.1387 -0.0459415 0)
(10.1452 -0.0463073 0)
(10.0146 -0.0141323 0)
(10.0343 -0.0373351 0)
(10.0575 -0.0412048 0)
(10.0739 -0.0404474 0)
(10.0841 -0.0405079 0)
(10.0919 -0.0413893 0)
(10.0999 -0.042197 0)
(10.1087 -0.0426373 0)
(10.1178 -0.0428297 0)
(10.1268 -0.0429589 0)
(10.1355 -0.04309 0)
(10.1439 -0.043256 0)
(10.1521 -0.0434217 0)
(10.16 -0.0436235 0)
(10.1677 -0.0438139 0)
(10.175 -0.0440688 0)
(10.1823 -0.0443165 0)
(10.189 -0.0447047 0)
(10.0018 -0.0290373 0)
(10.0466 -0.0526341 0)
(10.0848 -0.0573299 0)
(10.1085 -0.0580822 0)
(10.1214 -0.0591891 0)
(10.1292 -0.0605564 0)
(10.1347 -0.0615822 0)
(10.1386 -0.0621443 0)
(10.1408 -0.0623844 0)
(10.1411 -0.0624814 0)
(10.1398 -0.062505 0)
(10.137 -0.062518 0)
(10.133 -0.0624959 0)
(10.1282 -0.0624956 0)
(10.1223 -0.0624582 0)
(10.116 -0.0624701 0)
(10.1086 -0.0624511 0)
(10.1013 -0.0625393 0)
(9.90263 -0.0101003 0)
(9.74072 -0.0216182 0)
(9.58119 -0.0245673 0)
(9.41665 -0.025692 0)
(9.25191 -0.0267381 0)
(9.09232 -0.0277309 0)
(8.94021 -0.0284849 0)
(8.79571 -0.0289685 0)
(8.65807 -0.0292524 0)
(8.52677 -0.0294156 0)
(8.4013 -0.0295032 0)
(8.28166 -0.0295302 0)
(8.16731 -0.029506 0)
(8.05855 -0.0294284 0)
(7.95429 -0.029331 0)
(7.85553 -0.029188 0)
(7.76008 -0.0290933 0)
(7.67068 -0.0288951 0)
(-0.122225 0.0158572 1.14655e-21)
(-0.221745 -0.106503 -1.13338e-21)
(-0.225223 -0.214196 0)
(-0.160055 -0.312817 0)
(0.0287787 -0.39298 0)
(0.293848 -0.441089 1.09456e-21)
(0.593301 -0.46307 0)
(0.90883 -0.45752 0)
(1.22005 -0.430067 0)
(1.51341 -0.387708 0)
(1.77739 -0.339066 -8.7315e-22)
(2.00435 -0.293859 0)
(2.19649 -0.252228 0)
(2.35147 -0.204142 0)
(2.46383 -0.150237 0)
(2.53331 -0.0983098 -5.20251e-22)
(2.56339 -0.0517877 0)
(2.55788 -0.0106232 0)
(2.51902 0.0272555 0)
(2.44818 0.061427 0)
(2.34668 0.0927525 0)
(2.2159 0.118807 0)
(2.06005 0.141099 0)
(1.885 0.15241 -4.83529e-22)
(1.68367 0.157759 4.96949e-22)
(1.47285 0.125699 -5.06532e-22)
(1.26553 0.0781606 -5.11234e-22)
(1.045 0.036411 0)
(0.851745 -0.0283924 0)
(0.68047 0.00248907 4.96764e-22)
(0.471234 0.106206 4.86812e-22)
(0.220632 0.149714 0)
(-0.0495018 0.137785 0)
(-0.303563 0.118162 4.09616e-22)
(-0.545045 0.100974 0)
(-0.769269 0.0884032 0)
(-0.977312 0.075636 -2.85421e-22)
(-1.16171 0.0544242 0)
(-1.34003 0.0459681 -2.05462e-22)
(-1.53805 0.0552714 -3.25937e-22)
(-1.73673 0.0608708 0)
(-1.95207 0.0724161 0)
(-2.14731 0.0168716 0)
(-2.268 -0.0410447 0)
(-2.3716 -0.0282665 0)
(-2.41389 -0.0490514 1.88975e-22)
(-2.47171 -0.0875212 2.45707e-22)
(-2.46297 -0.118621 2.87397e-22)
(-2.46536 -0.067914 0)
(-2.55631 -0.0269314 -3.2259e-22)
(-2.60067 -0.0227236 0)
(-2.65877 -0.0109713 3.8222e-22)
(-2.72934 -0.034473 4.15824e-22)
(-2.76671 -0.00386779 0)
(-2.87838 0.0229023 0)
(-2.99576 0.0490179 0)
(-3.15184 0.0776794 5.74524e-22)
(-3.29343 0.0664109 0)
(-3.38165 0.0458619 0)
(-3.47096 0.0294514 0)
(-3.55104 0.0175054 0)
(-3.63135 0.0164878 0)
(-3.72222 0.0304885 0)
(-3.83679 0.0337144 0)
(-3.92396 0.0132013 0)
(-3.98996 0.00350824 -1.29548e-21)
(-4.04784 -0.00238488 0)
(-4.10135 -0.0089025 0)
(-4.13885 -0.0232514 1.3511e-21)
(-4.18187 -0.0247258 1.33387e-21)
(-4.21891 -0.0421147 0)
(-4.25313 -0.00866597 -1.25118e-21)
(-4.3545 0.0373417 1.19021e-21)
(-4.44082 0.0460484 0)
(-4.54174 0.0480645 -1.0773e-21)
(-4.6536 0.0423307 0)
(-4.76383 0.0515709 0)
(-4.90682 0.0674533 9.35443e-22)
(-5.04993 0.0890506 0)
(-5.24388 0.0830612 -9.07953e-22)
(-5.36976 0.0491322 0)
(-5.48007 0.0389542 9.18053e-22)
(-5.56712 0.0320005 9.19494e-22)
(-5.62997 0.0250363 9.17098e-22)
(-5.66191 0.0117673 1.81935e-21)
(-5.66363 -0.00126661 -1.78873e-21)
(-5.63829 -0.0142679 0)
(-5.588 -0.0254585 0)
(-5.51565 -0.0355272 0)
(-5.42281 -0.0441357 -1.41457e-21)
(-5.31152 -0.0519395 -1.24298e-21)
(-5.18264 -0.0592263 1.0367e-21)
(-5.03711 -0.0664684 0)
(-4.87484 -0.0736782 -5.19063e-22)
(-4.69614 -0.0807437 -2.09095e-22)
(-4.50126 -0.0874673 1.32687e-22)
(-4.29084 -0.0937454 0)
(-4.06558 -0.0995397 0)
(-3.82633 -0.104874 0)
(-3.57392 -0.109727 1.74726e-21)
(-3.30998 -0.113921 0)
(-3.03689 -0.11711 0)
(-2.75795 -0.118876 -3.07479e-21)
(-2.47677 -0.118887 0)
(-2.19731 -0.116879 0)
(-1.92306 -0.113878 -4.39333e-21)
(-1.65535 -0.113076 0)
(-1.39318 -0.115084 0)
(-1.15013 -0.0968622 5.59097e-21)
(-0.960067 -0.070159 5.90936e-21)
(-0.784528 -0.0625231 0)
(-0.603237 -0.0604852 -6.33162e-21)
(-0.421729 -0.0601716 0)
(-0.23771 -0.0596021 6.52088e-21)
(-0.0546313 -0.0586076 0)
(0.129189 -0.0575303 6.56546e-21)
(0.312621 -0.056251 6.5578e-21)
(0.496017 -0.0550384 0)
(0.678691 -0.0535967 0)
(0.86076 -0.0521291 0)
(1.04179 -0.0505964 0)
(1.22138 -0.0491069 0)
(1.39889 -0.0476929 0)
(1.57357 -0.0463758 0)
(1.74471 -0.0451833 6.51243e-21)
(1.91193 -0.0440749 -6.53869e-21)
(2.07537 -0.0430224 0)
(2.23536 -0.042028 0)
(2.39224 -0.0410664 0)
(2.54592 -0.0400184 0)
(2.69586 -0.0386857 -1.34219e-20)
(2.84085 -0.0368588 0)
(2.97934 -0.0344254 1.34727e-20)
(3.10976 -0.031402 -1.34465e-20)
(3.23072 -0.0279094 0)
(3.34115 -0.0241165 0)
(3.44036 -0.0201851 0)
(3.52815 -0.016244 1.29911e-20)
(3.6047 -0.012405 1.28129e-20)
(3.6704 -0.00879868 0)
(3.72554 -0.00546964 1.24183e-20)
(3.77049 -0.00238658 1.22111e-20)
(3.80567 0.000480536 -1.20017e-20)
(3.83158 0.00313431 0)
(3.84862 0.00555321 0)
(3.85723 0.00769537 -1.13802e-20)
(3.85778 0.00949767 0)
(3.8506 0.0109553 0)
(3.83597 0.0121067 0)
(3.81406 0.0129623 0)
(3.78462 0.0135003 1.04398e-20)
(3.74775 0.0139947 1.02731e-20)
(3.70341 0.0150654 0)
(3.65051 0.0169995 9.96667e-21)
(3.58796 0.0188474 0)
(3.51764 0.0198017 0)
(3.44416 0.0211681 9.57647e-21)
(3.37071 0.0245622 0)
(3.29702 0.0284897 9.35872e-21)
(3.2212 0.0299892 0)
(3.14171 0.028487 0)
(3.0598 0.0260703 9.0767e-21)
(2.97529 0.0243139 0)
(2.88706 0.0226343 8.90645e-21)
(2.79796 0.0215895 0)
(2.70324 0.0193138 0)
(2.61439 0.00894795 0)
(2.55735 -0.000535143 -8.53365e-21)
(2.52557 -0.000815604 0)
(2.50359 0.00130186 8.37155e-21)
(2.48916 0.00304847 0)
(2.47144 0.00372897 0)
(2.45754 0.00454369 0)
(2.43102 0.005371 0)
(2.41633 0.00839748 0)
(2.36608 0.0104285 0)
(2.34851 0.0165258 0)
(2.23731 0.0176027 -1.58631e-20)
(2.23346 0.0321051 0)
(1.97162 0.0349469 0)
(-0.0259441 0.351678 -3.38257e-21)
(0.0208485 0.147335 3.34199e-21)
(0.136172 -0.0920187 0)
(0.384574 -0.365659 -2.12189e-21)
(0.699592 -0.644402 0)
(1.0199 -0.853955 -1.09741e-21)
(1.33061 -0.970162 1.93333e-21)
(1.62116 -1.00009 1.83275e-21)
(1.88505 -0.962321 0)
(2.11743 -0.877242 1.56467e-21)
(2.31452 -0.763691 8.76376e-22)
(2.47304 -0.639248 0)
(2.59317 -0.516225 0)
(2.67559 -0.400251 0)
(2.72743 -0.289071 0)
(2.75927 -0.181493 5.22901e-22)
(2.77089 -0.0824491 0)
(2.75839 0.01004 -6.75045e-22)
(2.71938 0.10102 0)
(2.65357 0.18959 0)
(2.56142 0.275282 6.83735e-22)
(2.437 0.358663 0)
(2.28566 0.433936 -7.52859e-22)
(2.11498 0.503438 4.87147e-22)
(1.93719 0.54724 -5.00887e-22)
(1.73828 0.564765 5.10693e-22)
(1.49448 0.604218 5.15459e-22)
(1.19596 0.649162 0)
(0.870732 0.658741 0)
(0.540968 0.665057 -5.00733e-22)
(0.204817 0.622266 3.14854e-22)
(-0.0854453 0.55607 0)
(-0.312266 0.538595 0)
(-0.52833 0.521517 -4.12936e-22)
(-0.724372 0.482394 0)
(-0.926841 0.4409 0)
(-1.12195 0.406841 2.89399e-22)
(-1.27949 0.358773 0)
(-1.45252 0.340479 2.13001e-23)
(-1.63565 0.363686 3.34119e-22)
(-1.80921 0.395105 0)
(-1.96664 0.403621 0)
(-2.13991 0.360615 -2.9844e-22)
(-2.3066 0.273922 -4.5453e-22)
(-2.46179 0.138465 -6.01064e-22)
(-2.64961 0.0479923 5.5197e-22)
(-2.83341 0.0805042 -2.38517e-22)
(-2.91225 0.0479903 -1.23522e-21)
(-2.97985 0.00706482 1.02287e-21)
(-3.05792 0.00194146 3.15435e-22)
(-3.09159 0.00281545 0)
(-3.16652 0.0672823 -3.76212e-22)
(-3.26725 0.10561 8.42224e-22)
(-3.35429 0.12757 0)
(-3.49065 0.174639 0)
(-3.62251 0.202276 0)
(-3.73904 0.198789 -5.70113e-22)
(-3.83479 0.170053 0)
(-3.91906 0.140566 1.88917e-21)
(-4.0357 0.135819 0)
(-4.15765 0.153524 2.21895e-21)
(-4.25458 0.153319 0)
(-4.33321 0.151868 -2.53859e-21)
(-4.40206 0.145404 0)
(-4.4576 0.127528 2.79948e-21)
(-4.50467 0.101183 -1.59565e-21)
(-4.53908 0.0735668 0)
(-4.56009 0.0450902 -2.96312e-21)
(-4.57438 0.0278213 -1.34991e-21)
(-4.62258 0.0452069 -1.33292e-21)
(-4.72392 0.0934845 0)
(-4.81975 0.128465 -1.5029e-21)
(-4.94369 0.137776 -1.18959e-21)
(-5.08777 0.147191 0)
(-5.26657 0.189813 1.07484e-21)
(-5.39469 0.198546 -2.37067e-21)
(-5.48771 0.181726 0)
(-5.64067 0.199192 -9.32244e-22)
(-5.75689 0.201086 0)
(-5.85538 0.178029 3.06942e-21)
(-5.89877 0.139913 0)
(-5.92504 0.102044 -3.06516e-21)
(-5.91661 0.0576622 -9.16287e-22)
(-5.89102 0.0152165 1.19424e-21)
(-5.84005 -0.0267519 2.33043e-21)
(-5.77252 -0.0640756 -2.25843e-21)
(-5.68599 -0.0981967 0)
(-5.58456 -0.128333 0)
(-5.46737 -0.155704 0)
(-5.33636 -0.180634 4.59584e-21)
(-5.19139 -0.204052 1.24225e-21)
(-5.03337 -0.226354 -1.03659e-21)
(-4.86202 -0.247914 0)
(-4.67776 -0.268701 -8.1558e-22)
(-4.48059 -0.288586 2.10217e-22)
(-4.27089 -0.307364 -1.31417e-22)
(-4.04891 -0.324922 0)
(-3.81502 -0.341233 0)
(-3.56965 -0.35632 0)
(-3.31389 -0.369974 -1.74623e-21)
(-3.0493 -0.381469 0)
(-2.77832 -0.389552 5.07459e-21)
(-2.50384 -0.392937 9.04745e-21)
(-2.2293 -0.39091 -6.86856e-21)
(-1.95749 -0.384289 0)
(-1.69055 -0.37389 -4.24363e-21)
(-1.4459 -0.34885 0)
(-1.22869 -0.310249 -1.02823e-20)
(-1.01421 -0.278232 5.41092e-21)
(-0.802125 -0.262162 5.70658e-21)
(-0.58013 -0.258579 0)
(-0.354501 -0.255777 1.87994e-20)
(-0.130596 -0.252835 -1.27195e-20)
(0.0900819 -0.248053 -6.52132e-21)
(0.305328 -0.242599 0)
(0.51685 -0.237269 -6.56488e-21)
(0.724139 -0.232642 -1.95407e-20)
(0.928442 -0.228874 0)
(1.12917 -0.225309 -1.29203e-20)
(1.32691 -0.221495 -1.28873e-20)
(1.52178 -0.217092 -1.28651e-20)
(1.71419 -0.212244 0)
(1.90397 -0.207115 0)
(2.09086 -0.201868 0)
(2.27466 -0.19661 6.43646e-21)
(2.45514 -0.191367 6.53526e-21)
(2.63231 -0.186206 0)
(2.80653 -0.18125 1.31423e-20)
(2.9781 -0.176496 1.32194e-20)
(3.14706 -0.171636 0)
(3.31281 -0.166071 1.34154e-20)
(3.47426 -0.159176 2.68086e-20)
(3.62994 -0.150614 -1.3466e-20)
(3.77817 -0.140428 -1.33495e-20)
(3.91751 -0.128964 0)
(4.04686 -0.116709 0)
(4.1656 -0.104183 0)
(4.27361 -0.0918403 -1.29834e-20)
(4.37117 -0.0800108 1.27293e-20)
(4.45868 -0.0689194 2.5151e-20)
(4.53653 -0.0585934 -1.24105e-20)
(4.60505 -0.0489102 1.21331e-20)
(4.66453 -0.0397481 1.1994e-20)
(4.71526 -0.0310462 0)
(4.7575 -0.0227794 0)
(4.79152 -0.0149328 -1.1306e-20)
(4.81759 -0.00749071 0)
(4.83589 -0.000412461 0)
(4.84651 0.00637557 2.15146e-20)
(4.84955 0.0129545 0)
(4.84519 0.0193527 1.03715e-20)
(4.83311 0.0255087 -1.02655e-20)
(4.81309 0.0315368 0)
(4.78552 0.0378323 9.90195e-21)
(4.74993 0.0440906 0)
(4.70557 0.0489223 0)
(4.65138 0.0507501 -9.56911e-21)
(4.58547 0.0492981 1.88543e-20)
(4.51172 0.0471902 -9.35108e-21)
(4.44559 0.0484205 0)
(4.3891 0.0521944 0)
(4.3351 0.0572685 9.01626e-21)
(4.28077 0.0617695 0)
(4.22121 0.0631059 8.84113e-21)
(4.15798 0.0629346 0)
(4.0899 0.0629036 0)
(4.01554 0.0573617 0)
(3.94336 0.0437854 8.52683e-21)
(3.87762 0.0266851 0)
(3.81616 0.0118596 -8.36503e-21)
(3.77364 0.00498692 0)
(3.74823 0.00364792 0)
(3.74037 0.00546708 1.63285e-20)
(3.72588 0.00680722 -1.62147e-20)
(3.72754 0.0118612 0)
(3.70016 0.016253 0)
(3.70568 0.0294273 0)
(3.63974 0.037858 4.75002e-20)
(3.65697 0.064551 0)
(3.51377 0.0837227 -3.13131e-20)
(0.047746 0.246616 3.9449e-23)
(0.197358 -0.0628936 -4.37607e-21)
(0.460743 -0.539794 0)
(0.814212 -1.03932 4.13492e-21)
(1.15503 -1.40307 0)
(1.44651 -1.59293 0)
(1.68253 -1.63339 -3.15627e-22)
(1.86945 -1.56457 -1.83707e-21)
(2.015 -1.42408 -1.31518e-21)
(2.12795 -1.24056 -1.56777e-21)
(2.21525 -1.03771 0)
(2.2777 -0.83216 0)
(2.31674 -0.634994 7.24614e-22)
(2.33282 -0.453543 1.22516e-21)
(2.32953 -0.289501 -1.04269e-21)
(2.3124 -0.140556 0)
(2.2864 -0.00480064 -8.12083e-22)
(2.23929 0.124179 6.73853e-22)
(2.17151 0.250432 0)
(2.08526 0.378168 -7.7944e-22)
(1.98334 0.496242 -6.84094e-22)
(1.8673 0.6039 9.05863e-22)
(1.73629 0.703707 7.54617e-22)
(1.60017 0.768914 0)
(1.43384 0.843722 -1.14658e-21)
(1.22153 0.961077 -1.20523e-21)
(0.989393 1.06315 0)
(0.740424 1.13711 -1.26418e-21)
(0.477069 1.16521 0)
(0.206296 1.17075 -1.21815e-21)
(-0.0628878 1.15136 -8.11014e-22)
(-0.324465 1.08091 0)
(-0.575234 0.99802 0)
(-0.820008 0.921969 0)
(-1.02419 0.848715 0)
(-1.2031 0.792201 0)
(-1.37919 0.755398 0)
(-1.51803 0.688806 -4.70245e-23)
(-1.65988 0.644533 6.51916e-23)
(-1.79634 0.639402 0)
(-1.91755 0.649253 0)
(-2.01924 0.644515 0)
(-2.147 0.627013 -4.82167e-22)
(-2.2989 0.595023 4.51391e-22)
(-2.50165 0.558078 1.66984e-21)
(-2.68281 0.488746 -1.94797e-21)
(-2.85346 0.407917 -1.34694e-21)
(-2.98525 0.306207 9.53443e-22)
(-3.12912 0.221123 5.3097e-22)
(-3.25097 0.198914 1.63177e-21)
(-3.4097 0.247207 0)
(-3.54472 0.283949 1.75269e-21)
(-3.64532 0.295059 5.49657e-22)
(-3.7682 0.331181 0)
(-3.88792 0.396488 0)
(-3.97893 0.398648 -2.03906e-21)
(-4.07164 0.370014 0)
(-4.17777 0.34044 0)
(-4.27565 0.317014 2.99319e-21)
(-4.35096 0.287433 5.18231e-21)
(-4.40691 0.257093 -2.21857e-21)
(-4.44788 0.227028 0)
(-4.47609 0.205009 2.54157e-21)
(-4.49428 0.186322 0)
(-4.51042 0.170075 3.64844e-21)
(-4.52935 0.147659 2.8959e-21)
(-4.55136 0.116668 -6.61792e-21)
(-4.5688 0.0870743 -3.63994e-21)
(-4.62438 0.11334 0)
(-4.7103 0.171091 6.47556e-21)
(-4.80847 0.227882 0)
(-4.91163 0.270585 8.97771e-21)
(-5.05405 0.314812 6.06262e-21)
(-5.18009 0.335858 5.90376e-21)
(-5.30216 0.341359 -5.74336e-21)
(-5.38949 0.331632 7.96039e-21)
(-5.47473 0.322791 0)
(-5.58303 0.337463 0)
(-5.62278 0.306307 -5.25958e-21)
(-5.62588 0.241665 -7.36826e-21)
(-5.60597 0.173212 0)
(-5.57522 0.103075 2.15374e-21)
(-5.52547 0.0344876 0)
(-5.46796 -0.029733 -7.04634e-21)
(-5.39628 -0.0894448 6.69356e-22)
(-5.31655 -0.143323 -6.30787e-22)
(-5.22462 -0.192152 4.50789e-21)
(-5.12289 -0.236037 0)
(-5.00883 -0.276135 -4.02975e-21)
(-4.88306 -0.313247 5.20427e-22)
(-4.74411 -0.348438 0)
(-4.59215 -0.382307 0)
(-4.42665 -0.415191 0)
(-4.24798 -0.446993 1.34434e-21)
(-4.05632 -0.477447 0)
(-3.8523 -0.506202 0)
(-3.63649 -0.533009 0)
(-3.40968 -0.557718 0)
(-3.17277 -0.580161 0)
(-2.92712 -0.599723 -2.94512e-21)
(-2.67487 -0.614922 0)
(-2.41889 -0.623508 -5.07257e-21)
(-2.16234 -0.623379 -5.97176e-21)
(-1.90868 -0.613172 6.86805e-21)
(-1.66196 -0.592393 0)
(-1.42662 -0.56161 8.63799e-21)
(-1.20501 -0.523272 0)
(-0.987826 -0.486696 1.02834e-20)
(-0.759103 -0.46416 -1.10033e-20)
(-0.520852 -0.455075 -3.42924e-20)
(-0.277653 -0.450927 0)
(-0.0386275 -0.445134 -3.68602e-20)
(0.193809 -0.43633 -1.22109e-20)
(0.417223 -0.423873 0)
(0.631818 -0.410824 -2.54727e-20)
(0.839502 -0.399156 -2.55525e-20)
(1.04161 -0.389951 3.8534e-20)
(1.23958 -0.383009 0)
(1.43367 -0.376956 1.29124e-20)
(1.62483 -0.370616 1.28795e-20)
(1.8135 -0.363292 3.82498e-20)
(2.00008 -0.35514 0)
(2.18435 -0.346432 0)
(2.36587 -0.337412 0)
(2.54406 -0.328151 1.26982e-20)
(2.71852 -0.318737 0)
(2.88926 -0.309433 0)
(3.05673 -0.30061 -1.31384e-20)
(3.22158 -0.29242 -1.32159e-20)
(3.38417 -0.284402 0)
(3.5442 -0.275486 0)
(3.70062 -0.264486 -2.68028e-20)
(3.85183 -0.250763 0)
(3.99608 -0.234347 2.67839e-20)
(4.13189 -0.215753 2.65127e-20)
(4.25812 -0.195782 0)
(4.37408 -0.175374 0)
(4.47958 -0.155369 -2.57501e-20)
(4.57488 -0.136352 -1.26761e-22)
(4.66051 -0.118599 -1.22332e-22)
(4.73704 -0.102081 0)
(4.80495 -0.0865888 -4.8545e-20)
(4.86467 -0.0719243 0)
(4.91653 -0.0579845 0)
(4.96085 -0.0447331 0)
(4.99796 -0.0321383 2.26727e-20)
(5.02813 -0.0201226 0)
(5.05157 -0.00855683 -4.35732e-20)
(5.06839 0.0027192 -2.15092e-20)
(5.07861 0.0138726 0)
(5.0823 0.0250037 -2.07983e-20)
(5.07959 0.0361035 0)
(5.07022 0.0471864 0)
(5.05427 0.0584467 -5.94139e-20)
(5.03252 0.0697754 3.9005e-20)
(5.0053 0.0802523 0)
(4.97149 0.0887871 3.79952e-20)
(4.92828 0.0943795 -1.88498e-20)
(4.87183 0.0958516 0)
(4.80381 0.0927508 0)
(4.72888 0.0856014 0)
(4.65209 0.0784887 -5.40821e-20)
(4.59166 0.078282 0)
(4.54748 0.0822726 -1.7735e-20)
(4.50651 0.0861631 0)
(4.46635 0.0894956 0)
(4.42367 0.0881424 0)
(4.37627 0.0783024 0)
(4.32581 0.0634424 0)
(4.27315 0.0486114 0)
(4.22599 0.0367206 -3.30863e-20)
(4.18463 0.0264752 0)
(4.15494 0.0204838 -1.63239e-20)
(4.1305 0.0180433 4.85958e-20)
(4.12058 0.0222937 0)
(4.09917 0.0280109 0)
(4.09396 0.04141 -3.17685e-20)
(4.05925 0.0539571 -3.1641e-20)
(4.06077 0.0814172 3.13768e-20)
(4.00083 0.112783 3.13034e-20)
(0.0700123 -0.115343 6.48317e-21)
(0.349901 -0.772289 6.34549e-21)
(0.722027 -1.45433 3.95929e-21)
(1.05355 -1.87895 1.64467e-21)
(1.30075 -2.04638 0)
(1.46302 -2.02415 -2.9434e-21)
(1.5601 -1.8864 9.54518e-22)
(1.61613 -1.68564 0)
(1.64501 -1.45381 1.31439e-21)
(1.65952 -1.20511 0)
(1.67265 -0.963202 -1.25301e-21)
(1.68272 -0.745437 0)
(1.69025 -0.543906 -7.21019e-22)
(1.68941 -0.355332 -1.21779e-21)
(1.67547 -0.180477 1.03544e-21)
(1.64931 -0.0192987 0)
(1.61273 0.126261 8.06078e-22)
(1.54847 0.285673 0)
(1.4665 0.445628 0)
(1.37517 0.59174 7.76149e-22)
(1.27416 0.725443 0)
(1.16576 0.844509 -5.66015e-22)
(1.04886 0.94307 0)
(0.902724 1.05178 0)
(0.727125 1.18904 6.00242e-22)
(0.54274 1.31812 1.20916e-21)
(0.352557 1.42297 6.35776e-22)
(0.158111 1.50147 1.26955e-21)
(-0.0431848 1.53877 0)
(-0.255261 1.54448 1.85429e-21)
(-0.469782 1.53317 0)
(-0.686912 1.48151 4.9082e-22)
(-0.909788 1.40763 0)
(-1.13355 1.32728 0)
(-1.3417 1.23506 -8.83913e-23)
(-1.53319 1.14616 0)
(-1.701 1.05128 -2.4425e-22)
(-1.8412 0.945724 4.76489e-22)
(-1.97926 0.888604 7.42563e-22)
(-2.10589 0.868796 -1.60686e-21)
(-2.23531 0.881157 0)
(-2.34002 0.863975 0)
(-2.45907 0.84649 -1.84181e-21)
(-2.59063 0.825843 0)
(-2.72617 0.782004 -1.07029e-21)
(-2.84057 0.699605 1.21785e-21)
(-2.9552 0.601539 1.34907e-21)
(-3.06192 0.498301 0)
(-3.19674 0.457562 -1.55728e-21)
(-3.3353 0.475869 -1.63568e-21)
(-3.49008 0.511554 4.58713e-21)
(-3.65415 0.529387 -1.75354e-21)
(-3.80668 0.513983 -1.80501e-21)
(-3.95648 0.510403 0)
(-4.07873 0.535638 0)
(-4.16366 0.528088 2.03773e-21)
(-4.24247 0.503874 0)
(-4.30716 0.4624 0)
(-4.35627 0.412854 -4.87823e-21)
(-4.39049 0.359053 -5.18204e-21)
(-4.41013 0.305358 0)
(-4.41925 0.257891 0)
(-4.42196 0.221694 0)
(-4.42136 0.202671 0)
(-4.42117 0.191472 -6.46433e-21)
(-4.43364 0.174397 7.40961e-21)
(-4.45634 0.144508 6.6298e-21)
(-4.50097 0.145994 1.39696e-20)
(-4.57726 0.204022 0)
(-4.66619 0.281612 7.13204e-22)
(-4.75913 0.354006 0)
(-4.856 0.417656 -6.22409e-21)
(-4.95259 0.458384 8.13554e-22)
(-5.02343 0.460715 -5.91082e-21)
(-5.10151 0.45464 5.7519e-21)
(-5.14859 0.432473 8.59667e-22)
(-5.20496 0.410165 0)
(-5.24749 0.386828 6.23394e-21)
(-5.21852 0.309235 5.26975e-21)
(-5.18111 0.217654 1.12944e-20)
(-5.13759 0.132503 0)
(-5.08567 0.0474576 -5.92894e-21)
(-5.02742 -0.0307769 0)
(-4.96345 -0.105176 1.06662e-20)
(-4.89263 -0.173698 -4.83334e-21)