/*--------------------------------*- C++ -*----------------------------------*\
  =========                 |
  \\      /  F ield         | OpenFOAM: The Open Source CFD Toolbox
   \\    /   O peration     | Website:  https://openfoam.org
    \\  /    A nd           | Version:  6
     \\/     M anipulation  |
\*---------------------------------------------------------------------------*/
FoamFile
{
    version     2.0;
    format      ascii;
    class       volSymmTensorField;
    location    "0.1";
    object      UPrime2Mean;
}
// * * * * * * * * * * * * * * * * * * * * * * * * * * * * * * * * * * * * * //

dimensions      [0 2 -2 0 0 0 0];

internalField   nonuniform List<symmTensor> 
12225
(
(0.0336336 0.000675447 0 0.00382934 0 0)
(0.0157772 0.000394717 0 0.0021724 0 0)
(0.0145703 0.000144835 0 0.00157692 0 0)
(0.0179335 -8.54326e-05 0 0.00120629 0 0)
(0.0222207 -0.000280326 0 0.000955975 0 0)
(0.0291952 -0.00045143 0 0.000776816 0 0)
(0.0414112 -0.000816771 0 0.000656091 0 0)
(0.0596662 -0.00108501 0 0.000550106 0 0)
(0.0875346 -0.00219819 0 0.000525605 0 0)
(0.123624 -0.00216701 0 0.000424541 0 0)
(0.181162 -0.00598113 0 0.000570484 0 0)
(0.249621 -0.00380106 0 0.000429459 0 0)
(0.375431 -0.0169794 0 0.00118416 0 0)
(0.512862 -0.00602087 0 0.00103377 0 0)
(0.818451 -0.0535107 0 0.00482942 0 0)
(1.14136 -0.010462 0 0.00548106 0 0)
(2.02492 -0.199275 0 0.0296312 0 0)
(3.15462 -0.0123358 0 0.019088 0 0)
(0.0370827 0.00040627 0 0.00318926 0 0)
(0.0203474 0.000377599 0 0.00158102 0 0)
(0.0155762 0.000132936 0 0.00113661 0 0)
(0.014049 -1.75899e-05 0 0.000955078 0 0)
(0.0130834 -0.000107109 0 0.000863774 0 0)
(0.0129866 -0.000308152 0 0.0008285 0 0)
(0.0142613 -0.000708559 0 0.000819985 0 0)
(0.0175291 -0.00148165 0 0.000903127 0 0)
(0.0233901 -0.00246855 0 0.00095756 0 0)
(0.0333816 -0.00433851 0 0.00125725 0 0)
(0.0484285 -0.00634012 0 0.00144349 0 0)
(0.073677 -0.011062 0 0.00228679 0 0)
(0.110071 -0.0157782 0 0.00291452 0 0)
(0.174973 -0.0287291 0 0.00542236 0 0)
(0.266103 -0.0430373 0 0.00810111 0 0)
(0.449195 -0.0828764 0 0.0167392 0 0)
(0.696144 -0.143883 0 0.0316197 0 0)
(1.24984 -0.300954 0 0.0815665 0 0)
(0.0365678 0.000483876 0 0.00376115 0 0)
(0.0204639 0.000758205 0 0.00195653 0 0)
(0.0157434 0.000289364 0 0.0013796 0 0)
(0.0144408 -0.000100988 0 0.00114309 0 0)
(0.0137965 -0.000348581 0 0.00103055 0 0)
(0.013982 -0.000613913 0 0.00100074 0 0)
(0.0152596 -0.00106212 0 0.00105696 0 0)
(0.017868 -0.00179728 0 0.00117663 0 0)
(0.0222364 -0.00299616 0 0.00144331 0 0)
(0.0290545 -0.00473811 0 0.00183511 0 0)
(0.0392458 -0.00758179 0 0.00259218 0 0)
(0.0543873 -0.0117103 0 0.00371739 0 0)
(0.0767709 -0.0187591 0 0.00591783 0 0)
(0.11019 -0.0294984 0 0.00949406 0 0)
(0.160788 -0.0484622 0 0.0169585 0 0)
(0.235987 -0.0814588 0 0.0315246 0 0)
(0.347634 -0.142085 0 0.0644182 0 0)
(0.477019 -0.271405 0 0.172595 0 0)
(0.0330194 0.000788684 0 0.00453889 0 0)
(0.0161439 0.000518771 0 0.00261966 0 0)
(0.0122222 -4.92034e-05 0 0.00189566 0 0)
(0.0117447 -0.000460811 0 0.00161509 0 0)
(0.0116135 -0.000743032 0 0.0015215 0 0)
(0.0120539 -0.00111138 0 0.0015454 0 0)
(0.0134594 -0.00175625 0 0.00167502 0 0)
(0.0161946 -0.00283301 0 0.00194352 0 0)
(0.0206806 -0.00446981 0 0.00240428 0 0)
(0.027611 -0.00688194 0 0.00313224 0 0)
(0.0376878 -0.0104623 0 0.00435694 0 0)
(0.0524954 -0.0157859 0 0.00625775 0 0)
(0.0733769 -0.0242436 0 0.0097021 0 0)
(0.103738 -0.0371008 0 0.0152921 0 0)
(0.145502 -0.0590316 0 0.0266855 0 0)
(0.202967 -0.0933486 0 0.0471002 0 0)
(0.272568 -0.154469 0 0.0953894 0 0)
(0.341057 -0.243851 0 0.188158 0 0)
(0.0399994 0.000307782 0 0.00458783 0 0)
(0.0214173 0.000740057 0 0.00259396 0 0)
(0.0159354 0.000332467 0 0.00187111 0 0)
(0.0144902 -0.000137933 0 0.00163766 0 0)
(0.0137097 -0.000472127 0 0.00160702 0 0)
(0.0137098 -0.000875444 0 0.00172441 0 0)
(0.0147676 -0.00156028 0 0.00198649 0 0)
(0.0170292 -0.00270896 0 0.00243486 0 0)
(0.0208159 -0.00449503 0 0.00314518 0 0)
(0.0266579 -0.00719399 0 0.00427379 0 0)
(0.0354318 -0.0112285 0 0.00603942 0 0)
(0.0482752 -0.0173696 0 0.00891654 0 0)
(0.0669444 -0.026709 0 0.0136297 0 0)
(0.0930651 -0.0413015 0 0.021807 0 0)
(0.128972 -0.0639564 0 0.0361854 0 0)
(0.173742 -0.0997354 0 0.0634892 0 0)
(0.225542 -0.153111 0 0.113356 0 0)
(0.271269 -0.224713 0 0.204868 0 0)
(0.035603 0.000420055 0 0.00493515 0 0)
(0.0182823 0.000215271 0 0.00293266 0 0)
(0.0144256 -0.00029441 0 0.00213511 0 0)
(0.013909 -0.000772712 0 0.00194962 0 0)
(0.0135244 -0.00117256 0 0.00201965 0 0)
(0.0137811 -0.00172851 0 0.00226165 0 0)
(0.0151877 -0.00264729 0 0.00268402 0 0)
(0.0179022 -0.00408812 0 0.00334974 0 0)
(0.022114 -0.00624181 0 0.00438657 0 0)
(0.028181 -0.00939751 0 0.00597745 0 0)
(0.0367517 -0.0140618 0 0.00846518 0 0)
(0.0486741 -0.0209462 0 0.0123816 0 0)
(0.0651965 -0.0312463 0 0.0187299 0 0)
(0.0872407 -0.0465798 0 0.0292477 0 0)
(0.115782 -0.0694233 0 0.0470871 0 0)
(0.14924 -0.102669 0 0.0779777 0 0)
(0.185246 -0.148029 0 0.12962 0 0)
(0.215045 -0.203895 0 0.214994 0 0)
(0.0350623 0.000854073 0 0.00517727 0 0)
(0.0188123 0.000957762 0 0.00331324 0 0)
(0.0150314 0.000347359 0 0.0024006 0 0)
(0.0145214 -0.000328514 0 0.00217138 0 0)
(0.0141456 -0.000913575 0 0.002288 0 0)
(0.0141878 -0.00162765 0 0.00265617 0 0)
(0.0149983 -0.00268184 0 0.00327518 0 0)
(0.0167711 -0.00425692 0 0.00422146 0 0)
(0.0198289 -0.00657265 0 0.00564224 0 0)
(0.0246064 -0.00994847 0 0.00779728 0 0)
(0.0316762 -0.0148776 0 0.0110857 0 0)
(0.0416272 -0.0220676 0 0.0162004 0 0)
(0.0552195 -0.032535 0 0.0242246 0 0)
(0.0727427 -0.0476482 0 0.0371331 0 0)
(0.0943787 -0.0690535 0 0.0578386 0 0)
(0.118332 -0.0982221 0 0.0914185 0 0)
(0.142516 -0.135347 0 0.143467 0 0)
(0.161057 -0.177592 0 0.222281 0 0)
(0.0368637 6.18325e-05 0 0.00597347 0 0)
(0.0196335 0.000360476 0 0.00402389 0 0)
(0.0147353 -0.000167637 0 0.00311458 0 0)
(0.0136025 -0.000745457 0 0.00290011 0 0)
(0.01296 -0.0012007 0 0.0030858 0 0)
(0.0129154 -0.00184971 0 0.00358256 0 0)
(0.0137382 -0.00295558 0 0.00439153 0 0)
(0.0155854 -0.00467833 0 0.00561766 0 0)
(0.0187003 -0.00721006 0 0.00745554 0 0)
(0.0233499 -0.0108551 0 0.0102203 0 0)
(0.029874 -0.0160824 0 0.0143727 0 0)
(0.0385813 -0.0235283 0 0.0206966 0 0)
(0.0499161 -0.0340334 0 0.0303325 0 0)
(0.0638415 -0.0485914 0 0.0452625 0 0)
(0.0802148 -0.068205 0 0.0680579 0 0)
(0.0973179 -0.0934022 0 0.102957 0 0)
(0.113669 -0.123549 0 0.153844 0 0)
(0.125252 -0.155563 0 0.226573 0 0)
(0.0382131 0.0006378 0 0.00625662 0 0)
(0.0207151 0.000329749 0 0.00409655 0 0)
(0.0159228 -0.000410802 0 0.0030872 0 0)
(0.0148578 -0.00115487 0 0.00288979 0 0)
(0.0142529 -0.00170222 0 0.00314918 0 0)
(0.0143073 -0.00236205 0 0.00378434 0 0)
(0.0152107 -0.00346392 0 0.00483225 0 0)
(0.0169581 -0.00523067 0 0.00642076 0 0)
(0.0196567 -0.00785864 0 0.00876643 0 0)
(0.0235113 -0.0116162 0 0.0122287 0 0)
(0.0288123 -0.0169115 0 0.0173258 0 0)
(0.0358125 -0.024301 0 0.0249067 0 0)
(0.0447497 -0.0344468 0 0.0361284 0 0)
(0.0554219 -0.0480208 0 0.0528627 0 0)
(0.0673811 -0.0654921 0 0.0773136 0 0)
(0.0792557 -0.0867528 0 0.112864 0 0)
(0.0897422 -0.110671 0 0.162132 0 0)
(0.0965539 -0.134442 0 0.228959 0 0)
(0.0357903 -4.67197e-05 0 0.00623066 0 0)
(0.0191733 0.000106424 0 0.00449191 0 0)
(0.015057 -0.000504435 0 0.00356715 0 0)
(0.0142978 -0.00107342 0 0.00345635 0 0)
(0.0137206 -0.00149786 0 0.00388522 0 0)
(0.0136051 -0.00214388 0 0.0047342 0 0)
(0.0141879 -0.00329324 0 0.00604517 0 0)
(0.0154906 -0.00509969 0 0.00798337 0 0)
(0.0176076 -0.00771469 0 0.0108108 0 0)
(0.0206666 -0.0113722 0 0.0149288 0 0)
(0.0248157 -0.0164093 0 0.0208826 0 0)
(0.0301005 -0.0232463 0 0.0295238 0 0)
(0.0365227 -0.0323106 0 0.0419484 0 0)
(0.0437233 -0.0439452 0 0.0598313 0 0)
(0.0512119 -0.0581857 0 0.0849544 0 0)
(0.0579006 -0.0745599 0 0.119958 0 0)
(0.0630082 -0.0917533 0 0.166405 0 0)
(0.0652713 -0.107414 0 0.226874 0 0)
(0.0348354 0.000230711 0 0.00699062 0 0)
(0.0183151 -3.45098e-05 0 0.00536198 0 0)
(0.0145813 -0.0012439 0 0.00443078 0 0)
(0.014457 -0.00226762 0 0.00436739 0 0)
(0.0143836 -0.00296547 0 0.0049048 0 0)
(0.0146171 -0.00377938 0 0.00595428 0 0)
(0.0154796 -0.00508809 0 0.00757728 0 0)
(0.0169842 -0.00709515 0 0.00994862 0 0)
(0.0191381 -0.00993625 0 0.0133405 0 0)
(0.0219597 -0.013764 0 0.0181722 0 0)
(0.025505 -0.0188044 0 0.0249982 0 0)
(0.0296986 -0.0252977 0 0.034644 0 0)
(0.0344905 -0.0334816 0 0.0480939 0 0)
(0.0394334 -0.0433616 0 0.0667881 0 0)
(0.0441832 -0.0547613 0 0.092061 0 0)
(0.0478761 -0.0668561 0 0.125907 0 0)
(0.050344 -0.078559 0 0.16907 0 0)
(0.0508095 -0.0876663 0 0.223382 0 0)
(0.034653 5.36163e-05 0 0.00711695 0 0)
(0.0183372 -0.00019182 0 0.00532344 0 0)
(0.0143127 -0.000793529 0 0.00430546 0 0)
(0.0137094 -0.00138711 0 0.00428808 0 0)
(0.0131695 -0.00189298 0 0.00498815 0 0)
(0.0128686 -0.00260165 0 0.00623082 0 0)
(0.0130746 -0.00376789 0 0.00805196 0 0)
(0.0138518 -0.0055383 0 0.0106607 0 0)
(0.0152323 -0.00802607 0 0.0143733 0 0)
(0.0171971 -0.0113632 0 0.0196334 0 0)
(0.0197089 -0.0157276 0 0.0269778 0 0)
(0.0226442 -0.0212784 0 0.0371749 0 0)
(0.0259102 -0.0281285 0 0.0510683 0 0)
(0.0291786 -0.0361672 0 0.0698741 0 0)
(0.0322051 -0.0450866 0 0.0945528 0 0)
(0.0344586 -0.0541115 0 0.126625 0 0)
(0.0358699 -0.0622378 0 0.166281 0 0)
(0.0361844 -0.0678214 0 0.214933 0 0)
(0.035473 -5.36043e-05 0 0.00739206 0 0)
(0.0181406 -0.000147251 0 0.00579627 0 0)
(0.013705 -0.00129797 0 0.00476247 0 0)
(0.0131642 -0.00229632 0 0.00478584 0 0)
(0.0128777 -0.00286035 0 0.00559017 0 0)
(0.0128045 -0.00338839 0 0.0070499 0 0)
(0.0130696 -0.00430569 0 0.00921387 0 0)
(0.0136974 -0.0058455 0 0.012271 0 0)
(0.0147301 -0.00809893 0 0.0165152 0 0)
(0.016169 -0.0110995 0 0.022372 0 0)
(0.0179426 -0.0148893 0 0.0303445 0 0)
(0.0199099 -0.019499 0 0.0411282 0 0)
(0.021919 -0.0249182 0 0.0554235 0 0)
(0.0237494 -0.0309443 0 0.0742168 0 0)
(0.0251988 -0.0371997 0 0.0981611 0 0)
(0.0260812 -0.0429669 0 0.128391 0 0)
(0.0263886 -0.0473835 0 0.164756 0 0)
(0.0262806 -0.0491769 0 0.208331 0 0)
(0.0371819 0.000285562 0 0.00805437 0 0)
(0.0198713 -0.000115114 0 0.00645086 0 0)
(0.0150433 -0.000927648 0 0.00546352 0 0)
(0.0145275 -0.00165128 0 0.00566788 0 0)
(0.0143766 -0.00210935 0 0.00658726 0 0)
(0.0142401 -0.00256832 0 0.00814791 0 0)
(0.0142529 -0.00335964 0 0.0104866 0 0)
(0.0144725 -0.00466783 0 0.0138042 0 0)
(0.0149364 -0.00653853 0 0.0183587 0 0)
(0.0156235 -0.00895366 0 0.024529 0 0)
(0.0164461 -0.0118952 0 0.0327583 0 0)
(0.0172415 -0.0153122 0 0.0436502 0 0)
(0.0178574 -0.0190962 0 0.0577574 0 0)
(0.018139 -0.0229602 0 0.0758549 0 0)
(0.017993 -0.0265159 0 0.0983138 0 0)
(0.0174249 -0.0290954 0 0.125975 0 0)
(0.0165921 -0.0300615 0 0.158403 0 0)
(0.0158356 -0.0283972 0 0.196494 0 0)
(0.0375358 0.0016024 0 0.00850478 0 0)
(0.0196212 0.000882691 0 0.00762235 0 0)
(0.0145385 -0.000601974 0 0.00657797 0 0)
(0.0136993 -0.00169638 0 0.00677814 0 0)
(0.0129992 -0.00221095 0 0.00790469 0 0)
(0.0122481 -0.00260222 0 0.00974245 0 0)
(0.0117668 -0.00328532 0 0.0123496 0 0)
(0.0116616 -0.00442024 0 0.0159445 0 0)
(0.0119018 -0.00597191 0 0.0208047 0 0)
(0.012365 -0.00782618 0 0.0272835 0 0)
(0.0128966 -0.00988574 0 0.035737 0 0)
(0.0133542 -0.0120278 0 0.0466285 0 0)
(0.0136705 -0.0141013 0 0.0603189 0 0)
(0.0137972 -0.0158047 0 0.0773618 0 0)
(0.0137616 -0.0168105 0 0.0978638 0 0)
(0.0136317 -0.0165733 0 0.122437 0 0)
(0.013703 -0.0146665 0 0.150454 0 0)
(0.0141793 -0.0103586 0 0.18271 0 0)
(0.0379137 0.000674115 0 0.00981477 0 0)
(0.0203287 0.000372577 0 0.00906898 0 0)
(0.015366 -0.000844312 0 0.00811731 0 0)
(0.0145235 -0.00161931 0 0.00801717 0 0)
(0.013962 -0.00175198 0 0.00887061 0 0)
(0.0133476 -0.00170654 0 0.0106627 0 0)
(0.0128141 -0.00187213 0 0.0133825 0 0)
(0.0123905 -0.00235603 0 0.0171209 0 0)
(0.0120749 -0.00305678 0 0.0220587 0 0)
(0.0118389 -0.00379461 0 0.028474 0 0)
(0.0116461 -0.00441665 0 0.0366405 0 0)
(0.0114769 -0.00476837 0 0.0468955 0 0)
(0.0113767 -0.00470009 0 0.0594474 0 0)
(0.0114123 -0.00396025 0 0.0746505 0 0)
(0.0116651 -0.00230199 0 0.0924325 0 0)
(0.0122985 0.000652015 0 0.113214 0 0)
(0.0135275 0.00517066 0 0.136321 0 0)
(0.015648 0.0116831 0 0.162403 0 0)
(0.038262 0.00147701 0 0.0099243 0 0)
(0.0203413 0.000929646 0 0.00970388 0 0)
(0.0141884 -0.000368384 0 0.00877466 0 0)
(0.0125763 -0.000913676 0 0.00874833 0 0)
(0.0117838 -0.000686435 0 0.00966324 0 0)
(0.0112891 -0.000215035 0 0.0115031 0 0)
(0.0108852 9.45359e-05 0 0.0142649 0 0)
(0.0104177 0.000162809 0 0.0180152 0 0)
(0.00994972 0.000147246 0 0.0228796 0 0)
(0.00960402 0.00028776 0 0.0290534 0 0)
(0.00941867 0.000770843 0 0.0367101 0 0)
(0.00940375 0.00176532 0 0.0460597 0 0)
(0.00958951 0.00339088 0 0.0571756 0 0)
(0.0100766 0.00586971 0 0.070266 0 0)
(0.010963 0.00932477 0 0.0851455 0 0)
(0.012469 0.0140594 0 0.102116 0 0)
(0.0147494 0.020088 0 0.120534 0 0)
(0.0181202 0.0278146 0 0.140952 0 0)
(0.0367934 0.0015269 0 0.0106609 0 0)
(0.0183642 0.000599337 0 0.0104474 0 0)
(0.0127654 -0.00111733 0 0.00962891 0 0)
(0.0110678 -0.00161988 0 0.00965489 0 0)
(0.00985548 -0.00114621 0 0.0105568 0 0)
(0.00902643 -0.000438744 0 0.0122677 0 0)
(0.00858601 0.000114105 0 0.0147275 0 0)
(0.00840758 0.000516891 0 0.0179707 0 0)
(0.00845106 0.000991193 0 0.0220924 0 0)
(0.00867692 0.00180079 0 0.0272289 0 0)
(0.00902313 0.00312305 0 0.0334758 0 0)
(0.00950836 0.00508008 0 0.0409506 0 0)
(0.0102481 0.00773244 0 0.0496497 0 0)
(0.0114427 0.0112122 0 0.0596862 0 0)
(0.0132418 0.015566 0 0.0708654 0 0)
(0.0158869 0.0209943 0 0.083392 0 0)
(0.0194566 0.0274384 0 0.0967497 0 0)
(0.0242241 0.035199 0 0.111353 0 0)
(0.0352725 0.00143208 0 0.0107466 0 0)
(0.0192894 0.000962543 0 0.0108713 0 0)
(0.0142249 -0.000313296 0 0.0093691 0 0)
(0.0119779 -0.00043578 0 0.00893089 0 0)
(0.0103479 0.000227534 0 0.00958347 0 0)
(0.00935597 0.00102482 0 0.0110589 0 0)
(0.00886691 0.00175311 0 0.0131829 0 0)
(0.00872957 0.00252884 0 0.0158996 0 0)
(0.00895578 0.00357741 0 0.0192316 0 0)
(0.00954496 0.00509034 0 0.0232512 0 0)
(0.010445 0.0071538 0 0.028007 0 0)
(0.0116747 0.00980992 0 0.0335651 0 0)
(0.0133194 0.0130634 0 0.0399055 0 0)
(0.0155393 0.0169918 0 0.0470754 0 0)
(0.0184178 0.0216029 0 0.0548981 0 0)
(0.0221437 0.0270325 0 0.0635157 0 0)
(0.0267339 0.0332 0 0.0725423 0 0)
(0.032425 0.0403049 0 0.0822667 0 0)
(0.0382574 0.000770375 0 0.0111123 0 0)
(0.0183194 0.0011907 0 0.0098144 0 0)
(0.0126883 0.000365222 0 0.00750046 0 0)
(0.0112802 0.000239637 0 0.00675305 0 0)
(0.0106864 0.000713256 0 0.00701732 0 0)
(0.0106913 0.00137312 0 0.00794403 0 0)
(0.0108302 0.00207654 0 0.00938431 0 0)
(0.0108688 0.00291518 0 0.0112736 0 0)
(0.0110191 0.0040724 0 0.0135976 0 0)
(0.01155 0.00569958 0 0.0163806 0 0)
(0.0125816 0.00785845 0 0.0196355 0 0)
(0.0141624 0.0105659 0 0.0233789 0 0)
(0.0163203 0.0138025 0 0.0275748 0 0)
(0.0191287 0.0175948 0 0.0322423 0 0)
(0.0226189 0.0219278 0 0.0372682 0 0)
(0.0269161 0.0268623 0 0.0427426 0 0)
(0.0320429 0.0323384 0 0.0484365 0 0)
(0.0381199 0.0384569 0 0.0545256 0 0)
(0.0359686 0.000329983 0 0.0100777 0 0)
(0.0181578 0.000733701 0 0.00842299 0 0)
(0.0137393 9.60098e-05 0 0.00656692 0 0)
(0.0126789 -5.43622e-05 0 0.00623914 0 0)
(0.0120263 0.000359224 0 0.00668687 0 0)
(0.011914 0.00109618 0 0.00751157 0 0)
(0.0121394 0.00205163 0 0.00859146 0 0)
(0.012536 0.0032443 0 0.00993682 0 0)
(0.0132253 0.00471933 0 0.0116003 0 0)
(0.0143594 0.00651428 0 0.0136187 0 0)
(0.0160135 0.00865966 0 0.0159841 0 0)
(0.0182557 0.0111988 0 0.0186844 0 0)
(0.0211607 0.0141618 0 0.0216773 0 0)
(0.0248181 0.0176033 0 0.0249647 0 0)
(0.0292466 0.0215184 0 0.0284594 0 0)
(0.0345294 0.0259394 0 0.0322303 0 0)
(0.0406488 0.0307916 0 0.036125 0 0)
(0.0476802 0.0361213 0 0.0402572 0 0)
(0.0370378 0.0011337 0 0.00970024 0 0)
(0.0200666 0.00133964 0 0.0082319 0 0)
(0.0155605 0.000871463 0 0.00638358 0 0)
(0.0141056 0.000774014 0 0.00573657 0 0)
(0.0129291 0.00114539 0 0.00579097 0 0)
(0.0124043 0.00175886 0 0.0062079 0 0)
(0.0124461 0.00252492 0 0.00683875 0 0)
(0.0128745 0.00348159 0 0.0076532 0 0)
(0.0137467 0.0046836 0 0.00867349 0 0)
(0.015167 0.00617455 0 0.00992685 0 0)
(0.0171594 0.00798647 0 0.0114177 0 0)
(0.0197391 0.010155 0 0.0131426 0 0)
(0.0229269 0.0126972 0 0.015067 0 0)
(0.0268042 0.015646 0 0.017181 0 0)
(0.0314004 0.0189774 0 0.0194229 0 0)
(0.0368395 0.0226956 0 0.0218485 0 0)
(0.043138 0.0267371 0 0.0243604 0 0)
(0.0503643 0.0311299 0 0.0270187 0 0)
(0.0359728 0.000606943 0 0.00992137 0 0)
(0.0190947 0.00011298 0 0.00791347 0 0)
(0.0145619 -0.000169951 0 0.00560195 0 0)
(0.0133024 -0.000168335 0 0.00470995 0 0)
(0.0124668 0.000173259 0 0.00466622 0 0)
(0.0122019 0.000747612 0 0.00499451 0 0)
(0.0123642 0.00145744 0 0.00548491 0 0)
(0.0128004 0.00229384 0 0.00608359 0 0)
(0.0136325 0.00330443 0 0.00680192 0 0)
(0.0150304 0.00454648 0 0.00767055 0 0)
(0.0170553 0.00606623 0 0.0086979 0 0)
(0.0197233 0.00790323 0 0.00987446 0 0)
(0.0230723 0.0100714 0 0.0111764 0 0)
(0.0271724 0.0125807 0 0.0126013 0 0)
(0.0320618 0.015406 0 0.0141124 0 0)
(0.0377977 0.018535 0 0.0157488 0 0)
(0.0443832 0.0219181 0 0.0174384 0 0)
(0.0517963 0.0255592 0 0.0192086 0 0)
(0.0379432 0.00129188 0 0.00810889 0 0)
(0.0211069 0.00128776 0 0.00645645 0 0)
(0.0164988 0.000908997 0 0.00468594 0 0)
(0.0149415 0.000855593 0 0.00390052 0 0)
(0.0140232 0.00113853 0 0.00367124 0 0)
(0.0140421 0.00166157 0 0.00372861 0 0)
(0.014767 0.00234094 0 0.00394823 0 0)
(0.0158783 0.00315969 0 0.00427028 0 0)
(0.0173837 0.00412823 0 0.00467627 0 0)
(0.0193978 0.00526648 0 0.00517979 0 0)
(0.021969 0.00659997 0 0.00579351 0 0)
(0.0251298 0.00815699 0 0.00651573 0 0)
(0.0289488 0.00994702 0 0.00732745 0 0)
(0.0335267 0.0119813 0 0.00821752 0 0)
(0.0389141 0.0142466 0 0.00915495 0 0)
(0.0451896 0.0167474 0 0.0101701 0 0)
(0.0523471 0.0194479 0 0.0112215 0 0)
(0.0603516 0.0223632 0 0.0123246 0 0)
(0.0352624 -0.0002385 0 0.00787224 0 0)
(0.0183527 -5.66967e-05 0 0.00609523 0 0)
(0.0143071 1.01483e-05 0 0.00448064 0 0)
(0.0134746 9.59727e-05 0 0.00371182 0 0)
(0.0128727 0.00026965 0 0.00349497 0 0)
(0.0127051 0.000628601 0 0.00353619 0 0)
(0.0129623 0.00113171 0 0.00367826 0 0)
(0.0135376 0.0017289 0 0.00386796 0 0)
(0.0145638 0.00242643 0 0.0041049 0 0)
(0.0162209 0.00326555 0 0.00440501 0 0)
(0.0185691 0.00428457 0 0.00477618 0 0)
(0.0216135 0.00550852 0 0.00521529 0 0)
(0.0253734 0.00693653 0 0.00571184 0 0)
(0.0299026 0.00856856 0 0.00626282 0 0)
(0.0352044 0.0103824 0 0.00684559 0 0)
(0.0413299 0.012377 0 0.00748757 0 0)
(0.0482505 0.0145264 0 0.00815759 0 0)
(0.0559739 0.0168391 0 0.008845 0 0)
(0.0383551 1.71838e-05 0 0.00709322 0 0)
(0.0219605 -0.000171813 0 0.00492298 0 0)
(0.0178297 -0.000399171 0 0.00350597 0 0)
(0.0167426 -0.000409239 0 0.00283361 0 0)
(0.0158463 -0.000275014 0 0.00256967 0 0)
(0.015434 -2.16169e-05 0 0.00251672 0 0)
(0.0155863 0.000302085 0 0.00254055 0 0)
(0.0161795 0.000688335 0 0.00258849 0 0)
(0.017243 0.00115912 0 0.00266156 0 0)
(0.0188501 0.00173687 0 0.00277771 0 0)
(0.0210107 0.00243846 0 0.0029458 0 0)
(0.0237406 0.00328224 0 0.00316337 0 0)
(0.0271086 0.00427954 0 0.00342142 0 0)
(0.0312333 0.00543833 0 0.0037137 0 0)
(0.036165 0.00675221 0 0.00402718 0 0)
(0.0419801 0.00821711 0 0.00437935 0 0)
(0.048674 0.00981157 0 0.00474999 0 0)
(0.0561642 0.0115314 0 0.00513491 0 0)
(0.0366576 -0.000708162 0 0.00559354 0 0)
(0.0200973 -0.000531637 0 0.00380669 0 0)
(0.0162226 -0.000190873 0 0.00272172 0 0)
(0.0152131 -4.81e-05 0 0.00222244 0 0)
(0.0143748 1.82405e-05 0 0.00203032 0 0)
(0.0141703 0.000178643 0 0.0019625 0 0)
(0.0147017 0.000453608 0 0.00193493 0 0)
(0.0157422 0.000820464 0 0.00192879 0 0)
(0.0172406 0.00126751 0 0.00194866 0 0)
(0.0192751 0.00179311 0 0.00200008 0 0)
(0.0219096 0.00240073 0 0.00208328 0 0)
(0.0251995 0.00309819 0 0.0021964 0 0)
(0.0292162 0.00389144 0 0.00233641 0 0)
(0.0340246 0.00478625 0 0.00249958 0 0)
(0.0396357 0.00577789 0 0.00267554 0 0)
(0.0460786 0.00686919 0 0.00287903 0 0)
(0.0533398 0.008046 0 0.00309533 0 0)
(0.0613394 0.00931737 0 0.00331733 0 0)
(0.0372476 -0.000355766 0 0.00489957 0 0)
(0.0203368 -0.00062664 0 0.00284092 0 0)
(0.0160829 -0.00032439 0 0.00201859 0 0)
(0.0150964 -0.000131259 0 0.00168293 0 0)
(0.0142289 -6.26272e-05 0 0.00153277 0 0)
(0.0138186 -2.66992e-05 0 0.00145294 0 0)
(0.0141309 5.27373e-05 0 0.00139209 0 0)
(0.015053 0.000229749 0 0.00133847 0 0)
(0.0165384 0.000506675 0 0.00129645 0 0)
(0.0186253 0.000850674 0 0.00127246 0 0)
(0.0213304 0.00123722 0 0.00126992 0 0)
(0.0246712 0.0016688 0 0.00128893 0 0)
(0.0286986 0.00216105 0 0.00132897 0 0)
(0.0334822 0.00273061 0 0.00138949 0 0)
(0.0390366 0.00338018 0 0.00146369 0 0)
(0.0454126 0.00410718 0 0.00155898 0 0)
(0.052605 0.00490311 0 0.00166852 0 0)
(0.0605534 0.00576841 0 0.00178266 0 0)
(0.0379877 -0.000435915 0 0.00411451 0 0)
(0.0226088 -0.000845066 0 0.00246048 0 0)
(0.0175165 -0.000794296 0 0.0018343 0 0)
(0.0154041 -0.000653373 0 0.00154612 0 0)
(0.0144861 -0.000587522 0 0.00138253 0 0)
(0.014716 -0.000595942 0 0.00127027 0 0)
(0.0155849 -0.000609116 0 0.00118013 0 0)
(0.0166594 -0.000563162 0 0.00110756 0 0)
(0.0179885 -0.000442927 0 0.00105184 0 0)
(0.0198461 -0.000267279 0 0.00100939 0 0)
(0.0224199 -5.31043e-05 0 0.000977105 0 0)
(0.0257787 0.000201652 0 0.000954024 0 0)
(0.0299241 0.000511545 0 0.000940777 0 0)
(0.0348786 0.000888326 0 0.000936696 0 0)
(0.0405976 0.00133504 0 0.00093995 0 0)
(0.047199 0.00184602 0 0.000956131 0 0)
(0.0546877 0.0024188 0 0.000979098 0 0)
(0.0631022 0.00303921 0 0.00100456 0 0)
(0.0360151 -0.000228429 0 0.00395079 0 0)
(0.0199748 0.000166264 0 0.00214984 0 0)
(0.0165811 0.000176349 0 0.00158153 0 0)
(0.0156975 0.00019016 0 0.00128359 0 0)
(0.0146719 0.000143241 0 0.00108852 0 0)
(0.014227 7.24066e-05 0 0.000954887 0 0)
(0.0146728 3.73603e-05 0 0.000859886 0 0)
(0.0158065 5.24504e-05 0 0.000788769 0 0)
(0.0175299 9.82497e-05 0 0.000733243 0 0)
(0.0199028 0.000151683 0 0.000688649 0 0)
(0.0229997 0.000208134 0 0.000652324 0 0)
(0.0269226 0.000279337 0 0.000622352 0 0)
(0.0318078 0.000379837 0 0.000597598 0 0)
(0.0378198 0.00051559 0 0.000575509 0 0)
(0.0450661 0.000687112 0 0.000554305 0 0)
(0.0537177 0.000883703 0 0.000540416 0 0)
(0.0637827 0.00110281 0 0.000526976 0 0)
(0.0753271 0.00133665 0 0.000504863 0 0)
(0.0141296 -0.00873885 3.50436e-22 0.0157513 -2.67451e-22 1.13933e-37)
(0.0788884 -0.011733 -7.22396e-22 0.0164908 -6.62824e-24 1.12334e-37)
(0.192375 -0.0155653 0 0.0227844 0 0)
(0.339899 -0.0183911 0 0.042407 0 0)
(0.45305 -0.013489 0 0.0639598 0 0)
(0.549391 -0.0168583 3.77302e-22 0.0864001 5.86781e-22 1.05812e-37)
(0.664073 -0.0358411 0 0.106717 0 0)
(0.820565 -0.0738227 0 0.120632 0 0)
(1.04661 -0.12559 0 0.126414 0 0)
(1.35787 -0.181821 0 0.123952 0 0)
(1.76287 -0.230692 1.36101e-21 0.112941 -3.22079e-22 9.79929e-38)
(2.25235 -0.252383 0 0.0914043 0 0)
(2.77542 -0.238667 0 0.0718898 0 0)
(3.29019 -0.219271 0 0.0615105 0 0)
(3.78881 -0.206284 0 0.0561932 0 0)
(4.25966 -0.188646 1.80287e-21 0.0523136 8.31232e-23 9.05687e-38)
(4.68249 -0.159698 0 0.0492482 0 0)
(5.0414 -0.122134 0 0.0489079 0 0)
(5.33538 -0.0854686 0 0.0519492 0 0)
(5.56971 -0.0533488 0 0.05753 0 0)
(5.75907 -0.0292323 0 0.0650479 0 0)
(5.91588 -0.0113708 0 0.0735184 0 0)
(6.05199 -0.00445648 0 0.0840038 0 0)
(6.16006 -0.00256887 -1.36631e-21 0.0997604 4.70684e-22 7.94981e-38)
(6.30553 -0.0143221 1.99028e-21 0.115529 -4.53533e-22 7.81824e-38)
(6.44515 -0.00999452 -2.61829e-21 0.135656 3.68347e-22 7.68815e-38)
(6.63301 -0.00454563 -3.22556e-21 0.178492 2.68159e-22 7.5595e-38)
(6.88195 -0.0524725 0 0.195641 0 0)
(7.19748 -0.0586057 0 0.188695 0 0)
(7.53135 -0.134981 4.92824e-21 0.179958 -7.04206e-23 7.1823e-38)
(7.99168 -0.266421 5.5462e-21 0.181592 -3.15823e-22 7.0594e-38)
(8.59146 -0.353219 0 0.176282 0 0)
(9.30536 -0.407323 0 0.177506 0 0)
(10.0936 -0.435472 7.856e-21 0.173965 -3.51253e-22 6.69958e-38)
(10.8962 -0.440135 0 0.174437 0 0)
(11.6731 -0.43179 0 0.1787 0 0)
(12.3919 -0.423652 -1.02615e-20 0.188345 2.85541e-22 6.35325e-38)
(13.0663 -0.440013 0 0.206508 0 0)
(13.719 -0.453275 -1.18124e-20 0.217566 2.54146e-22 6.1298e-38)
(14.2736 -0.459389 -2.51645e-20 0.200522 5.55318e-22 2.40812e-37)
(14.8316 -0.453791 0 0.187885 0 0)
(15.291 -0.426262 0 0.180243 0 0)
(15.8284 -0.542525 0 0.141447 0 0)
(16.5825 -0.625655 0 0.142108 0 0)
(17.2801 -0.567486 0 0.154922 0 0)
(18.1733 -0.591265 -3.21832e-20 0.172538 3.4619e-22 2.1574e-37)
(18.8798 -0.664425 -3.2699e-20 0.191308 2.04424e-22 2.11762e-37)
(19.8027 -0.71939 -3.30232e-20 0.198071 1.31721e-22 2.0784e-37)
(20.541 -0.57244 0 0.205288 0 0)
(20.9655 -0.550403 3.39048e-20 0.225279 -4.78029e-22 2.00161e-37)
(21.6965 -0.581898 0 0.187029 0 0)
(22.3899 -0.540791 -3.47152e-20 0.148396 4.64899e-22 1.92705e-37)
(22.9697 -0.572284 -3.51644e-20 0.149762 5.12714e-22 1.89061e-37)
(23.6629 -0.436648 0 0.133426 0 0)
(23.9898 -0.414868 0 0.179925 0 0)
(24.4629 -0.371624 0 0.171751 0 0)
(24.8693 -0.364377 -3.75132e-20 0.181457 3.59186e-22 1.75016e-37)
(25.5955 -0.432076 0 0.147236 0 0)
(26.7074 -0.499426 0 0.130911 0 0)
(27.852 -0.533783 0 0.126407 0 0)
(28.9807 -0.547495 0 0.124685 0 0)
(30.0657 -0.52238 0 0.122269 0 0)
(30.9905 -0.445697 0 0.116648 0 0)
(31.6693 -0.402769 0 0.098712 0 0)
(32.4483 -0.42939 0 0.0936968 0 0)
(33.2222 -0.401384 4.63704e-20 0.0892615 -5.50745e-22 1.46443e-37)
(33.8223 -0.346565 0 0.0854725 0 0)
(34.205 -0.30061 0 0.0847723 0 0)
(34.5036 -0.304275 -4.8315e-20 0.0920418 5.93256e-22 1.37796e-37)
(34.5138 -0.240826 -4.8638e-20 0.0777468 5.16762e-22 1.35006e-37)
(34.3704 -0.25326 0 0.0757692 0 0)
(34.0889 -0.0232754 4.86431e-20 0.0639416 -2.47869e-22 1.29562e-37)
(33.1979 0.128273 -4.79474e-20 0.112104 5.09403e-23 1.26906e-37)
(32.6147 0.131565 0 0.111049 0 0)
(31.9844 0.0903331 4.61336e-20 0.121251 1.31088e-22 1.21726e-37)
(31.4296 0.0144209 0 0.12883 0 0)
(31.0247 0.00480558 0 0.137192 0 0)
(30.6192 -0.010282 -4.4655e-20 0.159042 2.40002e-22 1.14277e-37)
(30.3304 0.0509815 0 0.144724 0 0)
(29.822 -0.0514759 4.38194e-20 0.137903 -9.96246e-23 1.09519e-37)
(30.0096 -0.198124 0 0.111742 0 0)
(30.3282 -0.218937 -4.37679e-20 0.103272 2.22876e-22 1.04924e-37)
(30.8044 -0.212932 -4.39274e-20 0.0969056 2.71781e-22 1.02686e-37)
(31.4432 -0.220256 -4.42532e-20 0.0902897 3.24064e-22 1.00487e-37)
(32.2713 -0.249003 -8.93184e-20 0.0787049 6.78503e-22 3.93305e-37)
(33.2402 -0.267967 9.02577e-20 0.0673 -7.19352e-22 3.84816e-37)
(34.2797 -0.276304 0 0.0573523 0 0)
(35.3344 -0.269449 0 0.048962 0 0)
(36.3522 -0.250884 0 0.0419495 0 0)
(37.2908 -0.220446 9.40221e-20 0.0361244 -6.37033e-22 3.52331e-37)
(38.1082 -0.181786 9.44974e-20 0.0313858 -5.6905e-22 3.44564e-37)
(38.7745 -0.137555 -9.45879e-20 0.0275675 4.82542e-22 3.36936e-37)
(39.2676 -0.0907941 0 0.0243797 0 0)
(39.5707 -0.0425082 9.328e-20 0.0215889 -2.71528e-22 3.22081e-37)
(39.6713 0.00695273 9.17524e-20 0.0190844 -1.54216e-22 3.14851e-37)
(39.5588 0.0574392 8.95939e-20 0.0168598 -3.43418e-23 3.07749e-37)
(39.2265 0.108288 0 0.0149478 0 0)
(38.6734 0.158523 0 0.0134093 0 0)
(37.9037 0.206638 0 0.012335 0 0)
(36.9219 0.250918 7.48701e-20 0.0117853 4.05995e-22 2.80593e-37)
(35.7374 0.290526 0 0.0116646 0 0)
(34.3574 0.326325 0 0.0117201 0 0)
(32.7887 0.360085 -5.89979e-20 0.0118006 -5.93342e-22 2.61492e-37)
(31.03 0.392277 0 0.0121208 0 0)
(29.0963 0.421018 0 0.013257 0 0)
(27.0225 0.437158 -4.29015e-20 0.0154043 -5.29215e-22 2.43434e-37)
(24.881 0.430676 0 0.0154219 0 0)
(22.7434 0.410757 0 0.016083 0 0)
(20.7116 0.381367 3.05726e-20 0.031836 2.49385e-22 2.26375e-37)
(19.1867 0.251135 2.80465e-20 0.0641998 -1.68013e-23 2.20902e-37)
(18.2324 0.137399 0 0.0618292 0 0)
(17.6983 0.045799 -2.58457e-20 0.0506391 3.55321e-22 2.10269e-37)
(17.5476 -0.0107208 0 0.0407594 0 0)
(17.5834 -0.0465737 2.65115e-20 0.0325941 -4.47766e-22 2.0004e-37)
(17.7909 -0.0676218 0 0.026149 0 0)
(18.0491 -0.0727887 2.83436e-20 0.0209741 -4.18335e-22 1.90199e-37)
(18.3246 -0.0685777 2.92099e-20 0.0168559 -3.74668e-22 1.85419e-37)
(18.5481 -0.0533872 0 0.0135275 0 0)
(18.6864 -0.0321284 0 0.0108115 0 0)
(18.6986 -0.00479514 0 0.00867226 0 0)
(18.5611 0.0256176 0 0.00705699 0 0)
(18.2565 0.0577986 0 0.00592839 0 0)
(17.7802 0.0895571 0 0.005229 0 0)
(17.1403 0.119334 0 0.00489832 0 0)
(16.354 0.146122 2.24859e-20 0.00487979 1.39363e-22 1.5034e-37)
(15.4384 0.169385 -2.00373e-20 0.00512213 -1.6715e-22 1.46333e-37)
(14.4062 0.189064 0 0.00559651 0 0)
(13.2721 0.205065 0 0.0062832 0 0)
(12.0542 0.216667 0 0.00714876 0 0)
(10.7818 0.222224 0 0.00810778 0 0)
(9.49629 0.21992 -1.57031e-20 0.00900635 -2.29415e-22 5.09907e-37)
(8.24607 0.208991 0 0.00965931 0 0)
(7.07802 0.190477 9.33061e-21 0.00993959 7.51121e-23 4.81853e-37)
(6.02972 0.166838 -7.27108e-21 0.00983335 -6.48044e-24 4.68259e-37)
(5.12376 0.141047 0 0.00943146 0 0)
(4.36768 0.115675 0 0.0088685 0 0)
(3.75655 0.0924234 0 0.00826493 0 0)
(3.27705 0.0721066 4.41593e-21 0.00770112 -1.21675e-22 4.16645e-37)
(2.91206 0.0549662 4.4313e-21 0.00722388 -1.24662e-22 4.04408e-37)
(2.64497 0.0410292 0 0.00687493 0 0)
(2.46086 0.0299332 4.70589e-21 0.0066569 -1.18025e-22 3.80703e-37)
(2.34547 0.0211666 4.86644e-21 0.00654809 -1.09662e-22 3.69227e-37)
(2.28543 0.0143192 -4.99418e-21 0.00652814 9.64499e-23 3.57998e-37)
(2.26898 0.00908173 0 0.00658941 0 0)
(2.28605 0.00517879 0 0.00675094 0 0)
(2.32854 0.0023867 -5.06383e-21 0.00703863 5.3922e-23 3.25749e-37)
(2.38919 0.000522455 0 0.00742256 0 0)
(2.46192 -0.000626516 0 0.00783458 0 0)
(2.54179 -0.00124064 0 0.00824961 0 0)
(2.62624 -0.00093733 0 0.0086712 0 0)
(2.71103 0.000820977 4.51346e-21 0.00900376 -4.44104e-23 2.76564e-37)
(2.79181 0.00369756 4.3997e-21 0.00893179 -3.81454e-23 2.67378e-37)
(2.8661 0.00645621 0 0.00834995 0 0)
(2.93626 0.00891201 4.32101e-21 0.00771702 -8.13248e-23 2.4963e-37)
(3.00284 0.0126107 0 0.00715746 0 0)
(3.05058 0.0191304 0 0.0064168 0 0)
(3.05004 0.0238918 4.89299e-21 0.00583794 -4.52935e-23 2.24519e-37)
(2.996 0.0227854 0 0.00600312 0 0)
(2.90624 0.0199286 5.14772e-21 0.00734007 -1.0491e-22 2.08746e-37)
(2.79978 0.0218824 0 0.00892088 0 0)
(2.67798 0.0276169 0 0.00936497 0 0)