/*--------------------------------*- C++ -*----------------------------------*\
  =========                 |
  \\      /  F ield         | OpenFOAM: The Open Source CFD Toolbox
   \\    /   O peration     | Website:  https://openfoam.org
    \\  /    A nd           | Version:  6
     \\/     M anipulation  |
\*---------------------------------------------------------------------------*/
FoamFile
{
    version     2.0;
    format      ascii;
    class       volScalarField;
    location    "0.45";
    object      nut;
}
// * * * * * * * * * * * * * * * * * * * * * * * * * * * * * * * * * * * * * //

dimensions      [0 2 -1 0 0 0 0];

internalField   nonuniform List<scalar> 
12225
(
0
6.84858e-10
1.07966e-10
0
0
0
0
0
0
0
0
0
0
0
0
0
6.48279e-10
2.15973e-09
0
3.61927e-10
1.29982e-10
0
0
0
0
0
0
0
0
0
0
0
0
0
2.87938e-10
1.44399e-09
6.36043e-11
6.46215e-10
2.98971e-10
0
0
0
0
1.85764e-10
1.60443e-10
0
0
0
0
0
0
0
0
9.82043e-10
4.07095e-08
5.37101e-08
2.40394e-08
0
0
0
0
1.44737e-09
1.57779e-09
6.08278e-10
0
0
0
0
0
0
0
9.26761e-10
8.74515e-07
2.87074e-07
0
0
0
0
0
0
0
0
0
0
0
0
0
0
0
0
4.14289e-07
3.71515e-07
0
0
0
0
0
0
0
0
0
0
0
0
0
0
0
0
2.47317e-07
2.09523e-07
2.72492e-07
0
0
0
0
0
0
0
0
0
1.15549e-07
0
0
0
0
0
1.95464e-08
3.54731e-07
2.98424e-07
9.57897e-07
0
0
0
0
0
0
0
0
0
0
0
0
0
0
3.63525e-07
7.53576e-07
9.64734e-07
8.02611e-07
0
0
0
0
0
0
0
0
0
0
0
0
0
0
3.67399e-07
5.20001e-07
3.14637e-07
0
0
0
2.75221e-07
3.35775e-07
1.36838e-07
2.06952e-08
0
0
0
0
0
0
0
0
5.2446e-08
0
0
0
0
0
7.47209e-07
1.0944e-06
6.19747e-07
1.58268e-07
0
0
0
0
0
0
0
0
0
0
0
0
0
1.6845e-07
1.5519e-06
1.62728e-06
4.6405e-07
0
0
0
0
0
0
0
0
0
0
0
0
0
0
2.60727e-07
1.16804e-06
2.90014e-07
0
0
0
0
0
0
0
0
0
0
1.83201e-07
0
0
0
0
0
7.16104e-08
0
0
0
0
0
0
0
0
0
0
0
1.51376e-07
0
0
0
0
0
0
0
0
0
0
0
0
1.09672e-08
6.1077e-08
6.89162e-08
5.21622e-08
2.9394e-08
6.19808e-07
0
0
0
0
0
0
0
0
0
0
3.67779e-08
1.38608e-07
2.06222e-07
2.33789e-07
2.2063e-07
1.65256e-07
9.07935e-08
6.81902e-07
8.86527e-07
8.53312e-08
0
0
0
4.06278e-07
5.59995e-07
2.83428e-07
3.49546e-07
5.47031e-07
5.04552e-07
4.42338e-07
3.98658e-07
3.35408e-07
2.11912e-07
5.09744e-08
0
0
0
0
1.4161e-07
7.98709e-07
0
0
0
0
0
5.43293e-07
7.58761e-07
6.28211e-07
4.87569e-07
3.21063e-07
1.1134e-07
0
0
0
0
0
0
2.68577e-09
0
0
0
0
0
0
2.47654e-07
9.24255e-07
1.1158e-06
1.23535e-06
1.34737e-06
1.24385e-06
4.2284e-07
0
0
0
0
0
1.39534e-06
6.79867e-07
0
0
0
0
0
2.30731e-07
7.14572e-07
9.4134e-07
8.90467e-07
5.53596e-07
1.66535e-07
0
0
3.37135e-07
2.21577e-07
8.84451e-07
9.05782e-07
1.4279e-06
0
0
0
0
0
0
5.25347e-07
5.22312e-07
2.18965e-07
0
0
7.96819e-07
8.77642e-07
8.13971e-07
1.0922e-06
6.92807e-07
8.42531e-07
1.77843e-06
2.44145e-06
0
0
0
0
0
0
4.52508e-08
2.5691e-08
1.65192e-08
8.34361e-08
5.94517e-07
6.75109e-07
1.37729e-06
1.98329e-06
2.41565e-06
2.02335e-06
2.55271e-06
3.41533e-06
8.1712e-07
0
0
0
0
0
1.41152e-07
2.42006e-07
2.97853e-07
3.87201e-07
3.23334e-07
0
1.3927e-08
3.80463e-07
1.18954e-06
1.36292e-06
1.22858e-06
5.49245e-07
0
0
0
0
1.18155e-07
3.17355e-07
3.93869e-07
4.02003e-07
3.42458e-07
2.91177e-07
0
0
7.99196e-08
0
2.05785e-08
7.57924e-07
3.09554e-07
0
0
0
5.24532e-08
4.98207e-07
7.36418e-07
5.35399e-07
3.61506e-07
4.01526e-07
5.03778e-07
4.26961e-07
1.24957e-07
0
7.27905e-07
8.13336e-07
1.05358e-06
1.53133e-06
5.95905e-07
0
0
0
5.01679e-07
7.86599e-07
6.30126e-07
3.40465e-07
1.26695e-07
7.1781e-08
1.58559e-07
2.83712e-07
5.29776e-08
6.38846e-08
0
1.06259e-09
1.75077e-08
1.26567e-08
4.81352e-09
3.49327e-09
4.80497e-09
5.05719e-09
4.41568e-09
3.93019e-09
3.74413e-09
3.13012e-09
1.79149e-09
0
0
0
1.55766e-09
0
0
0
0
0
0
0
0
3.78962e-10
5.91119e-10
6.12761e-10
4.55784e-10
1.42197e-10
0
0
0
0
1.30268e-09
0
0
0
0
0
0
0
0
0
0
0
0
0
0
0
0
0
2.54769e-09
2.3495e-11
0
0
0
0
0
0
0
0
0
0
0
0
0
0
0
0
0
1.479e-05
2.19301e-06
0
4.43296e-06
9.70514e-06
8.91743e-06
5.45173e-06
2.11145e-06
0
0
0
0
0
0
0
0
0
0
0
0
0
0
0
2.57826e-07
6.17125e-07
1.0013e-06
1.41484e-06
1.85663e-06
2.27017e-06
2.72079e-06
3.00056e-06
3.06118e-06
3.14788e-06
2.4308e-06
0
0
0
0
0
3.05138e-06
3.89089e-06
2.75408e-06
1.70359e-06
9.53381e-07
3.41156e-07
0
0
0
0
0
0
0
1.80992e-06
7.80836e-06
2.12974e-05
4.51949e-06
3.53794e-06
1.2362e-06
0
6.14247e-06
2.02105e-05
8.8314e-06
3.13069e-06
2.00234e-06
1.72755e-06
1.44398e-06
1.11917e-06
8.08823e-07
5.66055e-07
3.74357e-07
2.31368e-07
1.14184e-07
1.32273e-08
0
0
0
0
0
0
0
0
0
0
0
0
0
0
0
0
0
0
0
0
0
0
0
0
0
0
0
0
0
0
0
0
0
0
0
0
0
0
0
0
0
0
0
0
0
3.49661e-07
3.63235e-07
2.63462e-07
1.45195e-07
4.33239e-08
0
0
0
0
0
0
0
0
0
0
0
0
0
0
0
0
0
0
0
0
4.42477e-08
1.93415e-07
3.96137e-07
5.19217e-07
0
0
0
0
0
0
0
0
0
0
0
0
0
0
7.97025e-07
3.83199e-07
0
0
0
1.1473e-06
1.07515e-06
5.04977e-07
1.10599e-06
4.25435e-06
1.22541e-05
2.51508e-05
3.88727e-05
1.48357e-05
2.4503e-06
1.39861e-06
1.82517e-06
1.54801e-06
0
0
0
0
0
4.3138e-06
5.43254e-06
4.18222e-06
2.08336e-06
5.02766e-08
0
0
0
0
0
0
0
0
0
0
0
0
0
0
3.79878e-09
3.89342e-07
7.60519e-07
1.12041e-06
1.44635e-06
1.73171e-06
1.98356e-06
2.05205e-06
1.89969e-06
1.89792e-06
1.53313e-06
0
0
0
0
0
0
0
0
6.48683e-07
8.12915e-07
6.43903e-07
2.73545e-07
0
0
0
0
0
0
1.57652e-06
6.11595e-06
4.35104e-06
2.372e-06
4.54411e-06
3.66793e-06
0
0
9.99299e-06
6.49029e-06
2.25575e-06
1.55133e-06
1.53538e-06
1.44322e-06
1.24037e-06
1.00921e-06
7.85229e-07
5.74137e-07
3.71306e-07
1.75002e-07
0
0
0
0
0
0
0
0
0
0
0
0
0
0
0
0
0
0
0
0
0
0
0
0
0
0
0
0
0
0
0
0
0
0
0
0
0
0
0
0
0
0
0
0
0
0
0
9.36284e-08
2.95339e-07
3.34129e-07
2.64251e-07
1.54337e-07
5.22359e-08
0
0
0
0
0
0
0
0
0
0
0
0
0
0
0
0
0
0
2.53491e-08
1.19739e-07
2.58973e-07
2.7026e-07
0
0
0
0
0
0
0
0
0
0
0
0
0
0
3.04208e-07
6.21765e-07
0
0
0
7.22624e-07
7.45005e-07
6.31118e-07
2.39558e-06
9.01131e-06
2.56277e-05
4.69142e-05
3.80737e-05
1.49829e-05
3.97379e-06
1.81036e-06
1.73932e-06
1.80173e-06
2.59315e-05
1.14179e-05
0
0
0
3.22282e-06
4.99366e-06
4.88338e-06
4.46551e-06
3.90143e-06
2.96864e-06
1.62885e-06
1.17457e-08
0
0
0
0
0
0
0
0
0
0
0
0
0
0
0
2.78065e-07
9.98803e-07
1.37409e-06
1.18002e-06
0
0
1.71309e-06
0
0
0
0
0
0
0
0
3.64432e-07
3.26481e-07
9.3174e-07
1.51039e-06
1.78188e-06
1.62999e-06
8.9407e-07
0
0
0
0
0
1.72661e-06
3.91521e-06
4.62664e-06
4.87804e-06
1.39505e-06
0
4.39351e-06
3.77447e-06
1.15625e-06
2.19363e-06
3.48558e-06
4.25082e-06
4.15965e-06
3.63183e-06
2.82263e-06
1.98829e-06
1.17104e-06
3.9215e-07
0
0
0
0
0
0
0
0
0
0
0
0
0
0
0
0
0
0
0
0
0
0
0
0
0
0
0
0
0
0
0
0
0
0
0
0
0
0
0
0
0
0
0
0
0
0
0
0
0
0
0
0
0
0
0
0
0
0
0
0
0
0
0
0
0
0
2.16471e-09
1.27558e-08
0
7.00152e-09
3.52967e-08
2.14048e-09
0
7.18657e-08
0
0
0
0
0
0
0
0
0
0
0
0
0
0
0
0
1.32135e-06
1.30189e-07
0
0
7.30566e-07
1.0338e-06
1.93267e-06
1.17489e-05
3.36545e-05
4.82052e-05
3.4935e-05
1.82061e-05
1.16903e-05
8.30751e-06
5.81622e-06
4.64572e-06
4.24344e-06
3.0824e-05
1.53187e-05
5.01724e-06
1.30332e-06
7.25306e-07
2.2863e-06
2.50963e-06
9.55472e-07
0
0
0
0
0
0
0
0
0
0
0
0
0
0
0
0
0
0
0
0
0
0
5.19045e-07
1.36372e-05
1.77229e-05
1.53999e-05
1.25733e-05
9.45004e-06
6.21477e-06
5.97125e-06
4.21619e-06
1.77528e-06
3.00512e-06
5.9997e-06
9.66548e-06
7.63389e-06
0
1.93029e-06
4.01335e-06
4.3422e-06
3.59731e-06
1.76614e-06
0
0
0
0
8.81854e-07
3.10754e-06
3.95309e-06
3.10661e-06
2.3662e-06
9.11453e-07
0
1.75587e-06
3.3052e-07
4.75537e-07
3.39511e-06
5.98841e-06
7.51781e-06
5.20566e-06
2.80425e-06
1.42949e-06
8.1417e-07
4.11806e-07
2.21934e-08
0
0
0
0
0
0
0
0
0
0
0
0
0
0
0
0
0
0
0
0
0
0
0
0
0
0
0
0
0
0
0
0
0
4.98282e-08
1.10847e-07
1.23607e-07
7.762e-08
0
0
0
0
0
0
0
1.25869e-07
2.99709e-07
4.52625e-07
5.60633e-07
5.43886e-07
3.03687e-07
0
0
0
0
0
0
0
0
0
0
0
0
0
0
0
0
0
0
0
0
0
0
0
0
0
0
0
0
0
0
8.54412e-08
0
0
0
0
0
0
0
6.89066e-08
1.14814e-06
3.44454e-06
2.11808e-06
0
0
0
3.98928e-06
4.45381e-06
7.31478e-06
1.54977e-05
1.93141e-05
1.53058e-05
1.27621e-05
1.121e-05
1.05671e-05
1.23047e-05
1.49877e-05
1.61841e-05
2.2398e-05
1.59085e-05
6.58139e-06
2.6854e-06
1.03916e-06
0
0
0
0
0
0
0
0
0
0
0
0
0
0
0
0
0
0
0
0
0
0
0
0
0
0
0
8.67969e-07
3.42129e-06
3.13444e-06
1.32245e-06
0
0
4.31231e-06
7.18056e-06
7.5086e-06
8.14557e-06
9.37199e-06
8.54353e-06
4.8467e-06
6.06178e-06
8.05501e-06
6.73163e-06
2.99555e-06
1.14877e-07
0
0
0
0
2.03379e-07
1.01229e-06
1.00105e-06
0
0
0
0
1.33282e-06
3.67873e-06
6.57083e-06
9.68405e-06
1.10135e-05
7.28633e-06
2.70698e-06
1.0837e-06
6.24381e-07
5.2902e-07
3.89737e-07
9.1454e-08
0
0
0
0
0
0
5.96443e-08
1.31068e-07
1.18853e-07
5.01515e-08
0
0
0
0
0
0
0
0
0
0
0
0
0
0
0
0
0
0
0
0
0
0
0
0
9.31559e-08
2.29233e-07
3.0369e-07
2.84561e-07
1.59423e-07
0
0
0
0
0
0
0
0
0
0
7.2788e-08
1.04038e-07
0
0
0
0
0
0
0
0
0
0
0
0
0
0
0
0
0
0
9.79896e-08
3.71212e-08
0
7.35838e-08
2.82292e-07
0
0
0
0
0
8.65243e-07
0
0
0
0
0
0
0
4.32125e-07
8.26649e-07
2.35455e-06
4.84153e-06
2.11839e-06
0
0
0
1.16366e-05
1.30187e-05
1.19855e-05
1.57724e-05
1.61216e-05
1.37407e-05
1.15012e-05
1.06602e-05
1.24699e-05
1.60936e-05
2.0256e-05
2.19827e-05
4.35471e-06
4.55569e-06
3.26478e-06
1.05227e-06
0
0
0
0
0
0
0
0
0
0
0
0
0
0
0
0
0
0
0
0
0
0
0
0
0
0
0
0
0
0
0
0
0
0
0
1.1914e-06
3.00357e-06
4.63581e-06
6.17955e-06
7.97408e-06
9.29078e-06
1.12537e-05
1.25104e-05
4.74489e-06
5.62869e-07
0
0
0
0
0
0
0
0
0
0
0
7.66821e-08
4.82148e-06
8.86925e-06
1.36271e-05
1.88743e-05
2.32556e-05
7.95166e-06
2.14116e-06
1.39154e-06
1.17479e-06
8.87669e-07
5.02543e-07
0
0
0
0
0
0
1.41431e-07
2.38341e-07
2.63597e-07
2.48637e-07
2.11983e-07
1.63202e-07
1.03943e-07
3.14653e-08
0
0
0
0
0
0
0
0
0
0
0
0
0
0
0
0
0
0
0
0
0
0
0
0
8.07739e-08
1.79948e-07
1.22403e-07
0
0
0
0
0
0
0
0
0
0
0
0
0
0
0
0
0
0
0
0
0
0
0
3.36438e-08
0
0
0
0
0
0
6.52033e-08
1.67533e-07
5.63932e-08
0
0
0
0
0
0
0
0
0
0
0
0
0
0
0
1.66406e-06
3.23269e-06
3.96475e-06
1.67479e-06
0
0
0
1.4793e-05
1.96074e-05
1.90199e-05
1.95074e-05
1.65194e-05
1.26977e-05
1.02476e-05
1.24416e-05
1.62545e-05
1.96021e-05
2.24004e-05
2.34722e-05
5.59441e-07
4.73496e-07
0
0
0
0
0
0
0
0
0
0
0
0
0
0
0
0
0
0
0
0
0
0
0
0
0
0
0
0
0
0
0
0
0
0
0
0
0
1.7908e-06
4.3635e-06
5.62533e-06
6.89634e-06
8.08764e-06
9.26939e-06
1.16252e-05
6.28164e-06
9.8214e-07
0
0
0
0
0
0
0
0
0
0
0
0
2.63218e-06
6.14918e-06
8.70849e-06
9.66064e-06
9.16601e-06
4.11345e-06
0
2.13999e-06
2.34216e-06
1.73583e-06
1.15908e-06
8.21167e-07
8.73702e-07
1.08061e-06
0
0
0
0
0
0
0
0
0
0
0
0
0
0
0
0
0
0
0
0
0
0
0
0
0
0
0
0
0
0
0
0
0
0
0
0
0
0
0
0
0
0
0
0
0
0
0
0
0
0
0
0
0
0
0
0
0
0
0
0
0
0
1.97457e-08
1.89762e-07
2.1407e-07
1.36588e-09
0
0
0
0
0
0
0
0
0
0
0
0
0
0
0
0
0
0
0
0
0
2.3619e-06
3.54214e-06
3.54411e-06
1.36308e-06
0
0
2.49287e-06
1.51124e-05
2.11065e-05
2.06288e-05
1.87349e-05
1.46556e-05
1.07456e-05
1.07275e-05
1.53932e-05
1.9797e-05
2.04895e-05
2.05754e-05
1.98012e-05
0
0
0
0
0
0
0
0
0
0
0
0
0
0
0
0
0
0
0
0
0
0
0
0
0
0
0
0
0
0
0
0
0
0
0
0
0
0
1.04018e-06
4.82734e-06
5.65426e-06
5.77582e-06
5.80512e-06
6.88158e-06
6.99967e-06
5.16487e-06
2.60022e-06
4.33573e-09
0
2.24784e-07
4.71911e-07
0
0
0
0
0
0
0
0
1.1051e-06
3.44106e-06
5.11553e-06
4.32818e-06
2.58413e-06
0
0
0
3.43755e-06
2.92375e-06
1.96734e-06
1.54773e-06
1.86033e-06
3.23111e-06
5.08629e-06
0
0
0
0
0
0
0
0
0
0
0
0
0
0
0
0
0
0
0
0
0
0
0
0
0
0
0
0
0
0
0
0
0
0
0
0
0
0
0
0
0
0
0
0
0
0
0
4.07841e-08
3.4662e-07
3.17419e-07
8.73569e-08
0
0
0
0
0
0
0
0
0
0
0
0
0
2.28039e-07
3.94398e-07
3.07604e-07
0
0
0
0
0
0
7.68472e-08
1.62904e-08
0
0
0
0
0
0
0
0
0
0
0
0
2.85845e-07
3.59861e-06
3.28655e-06
4.26442e-07
0
0
3.35421e-06
1.35536e-05
1.98044e-05
1.8838e-05
1.62508e-05
1.28111e-05
9.75394e-06
1.12482e-05
1.73083e-05
2.02736e-05
1.84698e-05
1.59291e-05
1.13469e-05
0
0
0
0
0
0
0
0
0
0
0
0
0
0
0
0
0
0
0
0
0
0
0
0
0
0
0
0
0
0
0
0
0
0
0
0
0
4.80464e-07
5.47259e-06
5.71802e-06
4.32017e-06
3.37088e-06
4.44758e-06
5.47728e-06
3.8795e-06
4.91336e-06
2.51935e-06
1.32854e-06
2.11395e-06
3.21887e-06
3.09593e-06
1.51961e-06
0
0
0
0
0
0
0
2.12232e-06
2.80188e-06
2.79499e-06
1.18833e-06
0
0
0
0
3.67302e-06
2.61955e-06
1.91321e-06
1.96079e-06
2.89299e-06
4.97656e-06
6.08582e-06
0
0
0
0
0
0
0
0
0
0
0
0
0
0
0
0
0
0
0
0
0
0
0
0
0
0
0
0
0
0
0
0
0
0
0
0
0
0
0
0
0
0
0
0
0
1.80572e-07
7.45611e-07
1.16008e-06
1.20096e-06
8.55356e-07
3.89186e-07
7.43134e-08
0
0
0
0
0
0
0
0
0
0
0
0
0
1.8925e-07
5.82987e-07
5.96368e-07
2.189e-07
0
0
0
0
0
0
0
0
0
0
0
0
0
0
0
0
0
0
0
2.59845e-06
2.47597e-06
0
0
0
2.94058e-06
1.10544e-05
1.75135e-05
1.63364e-05
1.45511e-05
1.18089e-05
9.66241e-06
1.14414e-05
1.72779e-05
1.86406e-05
1.48899e-05
8.96662e-06
0
0
0
0
0
0
0
0
0
0
0
0
0
0
0
0
0
0
0
0
0
0
0
0
0
0
0
0
0
0
0
0
0
0
0
0
0
0
5.03517e-06
5.9668e-06
3.36599e-06
1.2269e-06
1.79479e-06
3.72183e-06
5.03894e-06
8.4301e-06
7.761e-06
4.56715e-06
4.31764e-06
5.75442e-06
6.80412e-06
6.07678e-06
3.96171e-06
1.57358e-06
0
0
0
0
0
8.80792e-07
8.15368e-07
1.26006e-06
7.97803e-07
0
0
0
0
0
2.22036e-06
1.91401e-06
1.75353e-06
2.15519e-06
3.23061e-06
4.48506e-06
3.03508e-06
4.66748e-07
1.1397e-07
5.42836e-07
1.04044e-06
1.54271e-06
1.84136e-06
1.12502e-06
2.99475e-07
8.47631e-08
7.23046e-08
7.26688e-08
5.34721e-08
2.01188e-08
0
0
0
0
0
0
0
0
0
0
0
0
0
0
0
0
0
0
0
0
0
0
0
0
0
0
0
0
0
0
0
0
0
1.00995e-07
5.76301e-07
8.4679e-07
7.06237e-07
3.97798e-07
2.1432e-07
5.86609e-08
0
0
0
0
0
0
0
0
0
0
0
0
0
3.03646e-07
7.67931e-07
8.9259e-07
4.13596e-07
0
0
0
0
0
0
0
0
0
0
0
0
0
0
0
0
0
0
0
1.45469e-06
0
0
0
1.98462e-06
8.3027e-06
1.50218e-05
1.40169e-05
1.35106e-05
1.13927e-05
9.47861e-06
1.10658e-05
1.59849e-05
1.6191e-05
1.03533e-05
3.18652e-07
0
0
0
0
0
0
0
0
0
0
0
0
0
0
0
0
0
0
8.57438e-08
9.34768e-07
1.53537e-06
1.85556e-06
1.87462e-06
1.60535e-06
1.07062e-06
3.17463e-07
0
0
0
0
0
0
0
0
0
0
1.34349e-06
3.89179e-06
4.89009e-06
3.65008e-06
3.05013e-07
0
1.01524e-06
3.04627e-06
6.9148e-06
1.4006e-05
8.8546e-06
5.74331e-06
5.97344e-06
7.5775e-06
8.28095e-06
7.09055e-06
5.0355e-06
2.8045e-06
6.13365e-07
0
0
0
0
0
0
0
0
0
0
0
0
0
1.93122e-07
1.27495e-06
1.65114e-06
2.18773e-06
2.99071e-06
3.29436e-06
2.10597e-06
1.02392e-06
7.73174e-07
1.18242e-06
1.73888e-06
2.23992e-06
2.63316e-06
2.11035e-06
9.19266e-07
6.50189e-07
5.85941e-07
4.8359e-07
3.63052e-07
2.45982e-07
1.46983e-07
7.48153e-08
2.97819e-08
3.83684e-09
0
0
0
0
0
0
0
0
0
0
0
0
0
0
0
0
0
0
0
0
0
0
0
0
0
0
0
0
0
0
0
0
1.34833e-07
5.05101e-07
5.52368e-07
2.24494e-07
0
0
0
0
0
0
0
0
0
0
0
0
9.99597e-08
3.10736e-07
6.42778e-07
1.14318e-06
1.27519e-06
6.5884e-07
4.07036e-08
0
0
0
0
0
0
0
0
0
0
0
0
0
0
0
0
0
2.17007e-07
0
0
0
8.74074e-07
5.62755e-06
1.23071e-05
1.18159e-05
1.27042e-05
1.13262e-05
9.20462e-06
1.03014e-05
1.41455e-05
1.31813e-05
5.17441e-06
0
0
0
0
0
0
0
0
0
0
0
0
0
0
0
0
0
0
0
7.02457e-07
1.422e-06
2.08721e-06
2.74459e-06
3.37466e-06
3.93681e-06
4.33677e-06
4.57216e-06
4.52119e-06
4.15281e-06
3.49574e-06
2.60359e-06
1.42466e-06
0
0
0
1.35541e-06
8.62672e-06
8.33192e-06
2.53443e-06
2.17365e-06
7.76124e-07
0
0
3.96419e-07
2.16545e-06
8.16833e-06
1.13792e-05
6.75074e-06
4.16228e-06
4.11761e-06
5.02639e-06
5.26617e-06
4.43008e-06
3.59572e-06
3.65832e-06
4.58206e-06
7.90273e-06
5.26393e-06
0
0
0
0
0
0
0
6.05158e-08
0
0
0
0
1.1644e-06
1.95386e-06
2.45341e-06
2.76975e-06
2.59989e-06
1.78878e-06
9.98475e-07
9.47754e-07
1.66142e-06
2.43712e-06
3.14411e-06
4.19791e-06
5.54614e-06
4.46077e-06
1.70369e-06
1.10915e-06
8.99451e-07
7.02284e-07
5.07075e-07
3.35069e-07
2.01669e-07
1.11798e-07
5.82814e-08
2.78762e-08
9.25248e-09
0
0
0
0
0
0
0
0
0
0
0
0
0
0
0
0
0
0
0
0
0
0
0
0
0
0
0
0
0
0
0
8.81386e-07
1.02619e-06
2.57246e-07
0
0
0
0
0
0
0
0
0
0
0
0
3.08248e-07
8.73283e-07
1.30143e-06
1.70593e-06
2.13818e-06
1.89683e-06
7.13429e-07
0
0
0
0
0
0
0
0
0
0
0
0
0
0
0
0
0
0
0
0
0
0
3.08616e-06
9.24007e-06
9.37939e-06
1.16892e-05
1.11397e-05
8.78549e-06
9.18485e-06
1.19496e-05
9.81962e-06
3.1593e-07
0
0
0
0
0
0
0
0
0
0
0
0
0
0
0
0
0
8.1543e-08
5.29427e-07
7.37432e-07
8.6871e-07
1.15108e-06
1.69478e-06
2.42638e-06
3.29547e-06
4.26985e-06
5.13693e-06
5.78082e-06
5.98382e-06
5.74449e-06
5.12826e-06
3.92451e-06
1.77326e-06
0
0
6.8611e-07
6.91535e-06
1.3319e-05
0
0
0
0
0
0
4.92174e-07
3.76179e-06
5.77593e-06
3.73424e-06
1.93947e-06
1.3351e-06
1.37852e-06
1.52702e-06
1.96066e-06
3.40195e-06
6.62912e-06
1.27765e-05
1.25016e-05
3.05946e-06
0
0
0
0
0
0
0
7.5124e-07
1.12384e-06
0
0
0
1.28096e-06
2.69136e-06
3.07825e-06
2.62355e-06
1.93585e-06
1.34131e-06
7.33166e-07
8.80164e-07
1.93865e-06
2.9064e-06
3.64633e-06
4.67073e-06
6.16426e-06
8.5891e-06
5.27561e-06
5.6768e-07
5.40385e-07
6.77113e-07
6.30568e-07
4.81626e-07
3.15508e-07
1.8002e-07
8.87935e-08
3.45948e-08
4.40607e-09
0
0
0
0
0
0
0
0
0
0
0
0
0
0
0
0
0
0
0
0
0
0
0
0
0
0
0
0
0
0
0
0
0
0
0
0
0
0
0
0
0
0
0
0
0
0
2.9715e-07
1.61085e-06
2.5027e-06
3.10522e-06
3.63779e-06
4.17985e-06
3.00426e-06
1.00363e-06
2.33341e-07
0
0
0
0
0
6.28763e-08
3.44846e-07
0
0
0
0
0
0
0
0
0
0
0
0
0
7.00918e-07
5.94656e-06
6.54599e-06
1.0165e-05
1.06527e-05
8.23143e-06
7.9443e-06
9.6345e-06
6.53049e-06
0
0
0
0
0
0
0
0
0
0
0
0
0
0
0
3.32213e-07
2.1031e-06
4.17834e-06
6.0786e-06
6.97468e-06
5.80106e-06
2.1975e-06
0
0
0
6.71139e-07
1.68813e-06
2.54233e-06
3.31073e-06
4.00225e-06
4.35794e-06
4.55749e-06
4.43952e-06
3.82243e-06
2.73461e-06
1.97143e-06
2.79858e-06
5.27029e-06
8.90703e-06
0
0
0
0
0
0
0
0
7.74751e-07
1.25988e-06
9.06647e-07
6.44685e-07
7.39046e-07
1.30689e-06
2.63625e-06
5.22075e-06
9.26485e-06
1.00345e-05
5.75793e-06
1.80892e-06
0
0
0
0
0
0
0
2.22868e-06
4.72881e-06
2.0245e-06
0
0
2.55218e-06
4.42882e-06
4.15886e-06
2.37109e-06
1.06631e-06
7.77297e-07
3.3873e-07
5.84765e-07
1.86809e-06
2.84066e-06
3.23885e-06
3.63128e-06
4.19816e-06
5.19314e-06
7.17797e-06
0
0
0
5.09804e-07
6.0785e-07
4.85352e-07
3.09197e-07
1.63749e-07
6.99306e-08
1.69821e-08
0
0
0
0
0
0
0
0
0
0
0
0
0
0
0
0
0
0
0
0
0
0
0
0
0
0
0
0
0
0
0
0
0
0
0
0
0
0
0
0
0
0
0
0
0
0
1.06024e-07
1.49557e-06
2.88083e-06
3.60134e-06
3.92514e-06
4.15944e-06
4.92745e-06
6.75402e-06
4.23377e-06
1.85337e-06
7.98547e-07
5.2861e-07
5.9946e-07
6.42861e-07
8.09308e-07
1.05462e-06
6.44322e-07
0
0
0
0
0
0
0
0
0
0
0
0
0
2.84734e-06
3.47782e-06
7.99269e-06
9.92661e-06
7.60496e-06
6.65025e-06
7.41068e-06
3.71664e-06
0
0
0
0
0
0
0
0
0
0
0
0
0
2.86901e-07
2.3873e-06
5.55537e-06
1.02378e-05
1.65323e-05
2.43306e-05
3.32957e-05
3.84028e-05
1.93204e-05
0
0
0
0
0
0
1.31599e-06
2.12117e-06
2.25358e-06
2.08621e-06
2.42485e-06
3.53821e-06
5.07889e-06
6.7558e-06
8.47009e-06
9.71245e-06
1.03414e-05
4.96639e-06
0
0
0
0
0
0
0
0
0
4.04942e-07
1.12414e-06
1.82417e-06
2.80268e-06
4.30743e-06
6.26198e-06
7.11026e-06
5.72524e-06
3.4226e-06
1.3524e-06
0
0
0
0
0
0
0
5.67077e-06
1.41647e-05
9.0484e-06
0
0
4.29388e-06
5.37245e-06
3.86793e-06
1.2024e-06
9.00821e-08
4.81028e-07
1.30146e-07
9.19935e-08
1.21444e-06
2.01309e-06
2.11696e-06
2.24966e-06
2.44731e-06
2.71268e-06
3.44538e-06
1.50397e-06
0
0
0
5.50127e-07
6.70378e-07
5.1535e-07
3.07089e-07
1.51715e-07
6.30491e-08
1.76082e-08
0
0
0
0
0
0
0
0
0
0
0
0
0
0
0
0
0
0
0
0
0
0
0
0
0
0
0
0
0
0
0
0
0
0
0
0
0
0
0
0
0
0
0
3.04819e-09
6.98496e-08
2.34918e-07
6.64487e-07
1.46585e-06
2.11105e-06
2.4152e-06
2.54923e-06
2.8561e-06
3.56355e-06
4.1616e-06
6.31131e-06
7.01348e-06
3.62118e-06
2.19879e-06
1.784e-06
1.78235e-06
1.89e-06
1.41928e-06
6.34441e-07
3.66574e-07
0
0
0
0
0
0
0
0
0
0
0
3.3436e-07
5.33793e-07
5.27932e-06
8.75612e-06
6.83472e-06
5.3932e-06
5.42092e-06
1.49289e-06
0
0
0
0
0
0
0
0
0
0
0
0
0
1.95376e-06
4.95237e-06
9.58617e-06
1.63184e-05
2.43761e-05
2.95773e-05
2.65488e-05
1.45679e-05
7.41564e-07
0
0
0
0
0
0
0
1.20212e-06
1.66232e-06
1.26181e-06
8.22187e-07
4.81184e-07
1.52961e-06
5.18495e-06
9.94251e-06
1.37622e-05
1.34737e-05
8.3275e-06
0
0
0
0
0
0
0
0
0
0
9.74073e-07
2.18427e-06
3.30487e-06
4.3696e-06
5.0634e-06
4.79366e-06
3.78252e-06
2.43777e-06
1.1855e-06
1.64199e-07
0
0
0
0
0
0
6.4744e-06
2.51563e-05
1.33017e-05
1.28622e-06
8.54667e-07
3.54255e-06
3.73711e-06
2.06205e-06
4.95259e-08
0
9.78109e-07
2.36194e-07
0
0
3.43959e-07
6.42381e-07
1.013e-06
1.09718e-06
9.35411e-07
1.01108e-06
5.79275e-07
0
0
0
1.59963e-07
6.28878e-07
6.28512e-07
4.16883e-07
2.06586e-07
8.01193e-08
2.22483e-08
0
0
0
0
0
0
0
0
0
0
0
0
0
0
0
0
0
0
0
0
0
0
0
0
0
0
0
0
0
0
0
0
0
0
0
0
0
0
0
0
0
0
0
3.88741e-08
1.07517e-07
2.10681e-07
4.1934e-07
8.33822e-07
1.32763e-06
1.51708e-06
1.73635e-06
2.13028e-06
2.789e-06
2.96753e-06
2.42713e-06
3.55804e-06
8.97741e-06
6.48459e-06
3.6894e-06
3.06741e-06
2.87304e-06
2.23453e-06
1.39172e-06
1.03686e-06
6.52838e-07
0
0
0
0
0
0
0
0
0
0
0
0
2.27303e-06
7.00283e-06
5.83435e-06
4.19979e-06
3.67976e-06
0
0
0
0
0
0
0
0
0
0
0
0
0
0
2.5436e-08
1.25599e-06
2.50044e-06
3.41035e-06
3.02684e-06
3.70922e-07
0
0
0
0
0
0
0
0
0
0
0
1.04224e-06
8.74913e-07
4.81248e-07
2.39086e-07
0
0
1.61665e-06
6.20169e-06
9.09261e-06
7.24746e-06
0
0
0
0
0
0
0
0
0
0
1.50246e-07
1.25884e-06
2.16812e-06
2.84235e-06
3.14948e-06
2.92567e-06
2.37987e-06
1.61151e-06
9.62977e-07
5.44641e-07
0
0
0
0
0
0
0
1.18457e-05
7.19232e-06
1.54163e-07
0
3.13785e-07
1.35914e-06
8.77027e-07
1.58461e-07
9.29658e-07
2.03503e-06
4.57378e-07
0
0
0
0
0
0
0
0
0
0
0
0
1.39399e-07
3.26363e-07
3.76756e-07
2.56587e-07
8.06057e-08
0
0
0
0
0
0
0
0
0
0
0
0
0
0
0
0
0
0
0
0
0
0
0
0
0
0
0
0
0
0
0
0
0
0
0
0
0
0
0
0
0
0
0
0
0
4.5961e-08
1.10807e-07
1.82943e-07
2.97919e-07
5.31212e-07
9.1205e-07
1.08697e-06
1.23007e-06
1.60435e-06
2.34361e-06
3.24112e-06
2.3475e-06
1.45597e-06
2.34908e-06
8.82236e-06
7.15693e-06
4.68335e-06
3.93058e-06
3.02681e-06
2.09853e-06
1.62683e-06
1.23844e-06
0
0
0
4.14199e-07
9.53206e-07
0
0
0
0
0
0
0
0
4.63216e-06
4.4818e-06
3.03685e-06
2.18221e-06
0
0
0
0
0
0
0
1.69667e-07
0
0
0
0
0
0
0
0
0
0
0
0
0
0
0
0
9.66979e-07
2.21267e-06
3.81974e-06
1.28644e-06
0
0
0
4.83684e-07
6.40444e-07
2.85498e-07
1.19808e-07
4.12182e-08
0
0
0
0
7.43695e-07
0
0
0
0
0
0
0
0
0
0
0
4.39024e-07
1.04564e-06
1.47243e-06
1.7006e-06
1.62333e-06
1.3465e-06
9.36074e-07
6.64293e-07
5.8239e-07
2.38062e-07
0
0
0
0
0
0
0
0
0
0
0
1.92846e-07
8.73864e-07
9.09008e-07
1.66847e-06
2.38168e-06
5.42678e-07
0
0
0
0
0
0
0
0
0
0
0
8.78782e-07
9.52399e-07
4.11373e-07
9.77936e-08
0
0
0
0
0
0
0
0
0
0
0
0
0
0
0
0
0
0
0
0
0
0
0
0
0
0
0
0
0
0
0
0
0
0
0
0
0
0
0
0
0
0
0
0
0
0
2.36797e-08
8.91666e-08
1.34859e-07
1.90161e-07
2.62127e-07
4.149e-07
6.62331e-07
7.92532e-07
8.84265e-07
1.18124e-06
1.84018e-06
2.73453e-06
3.09563e-06
1.69187e-06
1.07224e-06
2.74027e-06
1.05437e-05
6.83477e-06
5.11652e-06
3.82647e-06
2.74559e-06
2.16893e-06
1.66753e-06
0
0
0
4.49789e-07
1.86044e-06
6.01233e-07
0
0
0
0
0
0
0
1.73025e-06
2.70045e-06
1.7594e-06
9.60829e-07
0
0
0
0
0
0
6.04385e-07
2.36335e-06
2.47324e-06
1.9904e-06
1.30506e-06
7.17114e-07
2.95911e-07
0
0
0
0
0
0
0
0
0
0
4.7141e-06
5.01468e-06
3.87229e-06
4.97737e-06
4.87088e-06
0
0
0
8.04222e-07
5.74554e-07
1.68775e-07
5.39361e-08
3.01567e-08
0
0
0
0
0
0
0
0
0
0
0
0
0
0
0
0
1.66682e-07
4.89395e-07
7.13782e-07
8.30233e-07
8.00876e-07
6.48167e-07
4.37289e-07
3.55069e-07
4.22613e-07
3.18021e-07
0
0
0
0
0
0
0
0
0
0
0
0
1.18325e-06
1.18127e-06
1.38256e-06
1.71392e-06
5.68784e-07
0
0
0
0
0
0
0
0
0
0
0
0
9.75578e-07
7.08001e-07
1.17473e-07
0
0
0
0
0
0
0
0
0
0
0
0
0
0
0
0
0
0
0
0
0
0
0
0
0
0
0
0
0
0
0
0
0
0
0
0
0
0
0
0
0
0
0
0
0
0
1.23687e-07
2.74283e-07
2.78868e-07
2.61435e-07
2.94687e-07
3.86084e-07
5.53403e-07
6.40207e-07
6.81708e-07
8.65877e-07
1.33154e-06
1.77298e-06
2.36851e-06
2.60698e-06
1.28424e-06
1.59939e-06
7.01831e-06
9.18089e-06
6.26997e-06
4.58151e-06
3.31052e-06
2.63689e-06
2.02686e-06
0
0
0
1.11074e-07
1.81689e-06
2.11831e-06
0
0
0
0
0
0
0
0
3.66275e-07
1.31614e-07
0
0
0
0
0
0
1.19043e-07
1.33458e-06
2.83309e-06
3.39819e-06
3.33221e-06
2.94163e-06
2.40284e-06
2.00801e-06
1.80386e-06
1.531e-06
7.80258e-07
0
0
0
0
0
0
5.9003e-06
1.06858e-05
8.53872e-06
5.2173e-06
4.54863e-06
5.28993e-06
1.83091e-06
0
1.55864e-06
1.66495e-06
6.78375e-07
3.43037e-08
0
2.4755e-09
2.03325e-08
0
0
0
0
0
0
0
0
0
0
0
0
2.43524e-07
4.70555e-08
7.69853e-09
1.56009e-07
3.08483e-07
3.86967e-07
4.02078e-07
3.48352e-07
2.40271e-07
1.2386e-07
1.14211e-07
2.29109e-07
2.73932e-07
1.21223e-07
0
0
0
0
0
0
0
0
0
0
0
8.76686e-07
6.71094e-07
5.37965e-07
8.90012e-07
6.46419e-07
0
0
0
0
0
0
0
0
0
0
0
0
0
3.32618e-07
1.27656e-07
0
0
0
0
0
0
0
0
0
0
0
0
0
0
0
0
0
0
0
0
0
0
0
0
0
0
0
0
0
0
0
0
0
0
0
0
0
0
0
0
0
0
0
0
0
0
1.02409e-07
6.7637e-07
6.8161e-07
5.22641e-07
4.13232e-07
4.40054e-07
5.44232e-07
6.16898e-07
6.15702e-07
6.74041e-07
9.50013e-07
1.08501e-06
1.11527e-06
1.7409e-06
2.19809e-06
1.93447e-06
5.8202e-06
1.0581e-05
7.06028e-06
5.20298e-06
3.77645e-06
2.99695e-06
2.33494e-06
4.7528e-07
0
0
0
0
2.35319e-06
3.99681e-07
0
0
0
0
0
0
0
0
0
0
0
0
0
0
0
2.93491e-07
1.5223e-06
1.45856e-06
2.87727e-06
3.4761e-06
3.47114e-06
3.15931e-06
2.7774e-06
2.47622e-06
2.35597e-06
2.2055e-06
1.68555e-06
6.57696e-07
0
0
0
0
5.46493e-06
8.51071e-06
8.04266e-06
5.61107e-06
4.76953e-06
6.45814e-06
4.58447e-06
3.62327e-06
3.18087e-06
1.6629e-06
6.90269e-07
7.92718e-08
0
0
0
1.33952e-09
0
0
0
0
0
0
0
0
0
0
0
1.77149e-07
4.18196e-07
2.38584e-07
1.73404e-07
2.07129e-07
2.17917e-07
1.75505e-07
9.67885e-08
5.76506e-09
0
0
7.07672e-08
2.05036e-07
2.96948e-07
5.11978e-07
9.96748e-07
1.79609e-06
2.59022e-06
1.46652e-06
0
0
0
0
0
0
2.76456e-08
3.81612e-08
0
4.25288e-07
6.6375e-07
1.65538e-08
0
0
0
0
0
0
0
0
0
0
0
0
0
0
0
0
0
0
0
0
0
0
0
0
0
0
0
0
0
0
0
0
0
0
0
0
0
0
0
0
0
0
0
0
0
0
0
0
0
0
0
0
0
0
0
0
0
0
0
0
0
1.00145e-06
1.41575e-06
1.1036e-06
7.38041e-07
5.66917e-07
5.93555e-07
6.43795e-07
6.35033e-07
5.81499e-07
7.09941e-07
7.10179e-07
5.44903e-07
5.8784e-07
1.76769e-06
3.24641e-06
7.30264e-06
1.12896e-05
6.86285e-06
5.57931e-06
4.12874e-06
3.24692e-06
2.56856e-06
8.63781e-07
0
1.05674e-07
0
0
5.46611e-07
1.29707e-07
0
0
0
0
0
0
0
0
0
0
0
0
0
0
0
3.29902e-07
9.05739e-07
0
1.8488e-07
1.86804e-06
2.65283e-06
2.85125e-06
2.73181e-06
2.50028e-06
2.31941e-06
2.18228e-06
1.96746e-06
1.6155e-06
1.14466e-06
7.77828e-07
8.64661e-07
1.7513e-06
3.11451e-06
5.00445e-06
5.97754e-06
5.13126e-06
4.29937e-06
3.48398e-06
3.03534e-06
4.06988e-06
2.94594e-06
1.41474e-06
5.88268e-07
1.24257e-07
0
0
4.0773e-09
5.31172e-09
2.42558e-09
0
0
0
0
0
0
0
0
0
0
0
4.59665e-07
4.2436e-07
2.18782e-07
1.17011e-07
7.32039e-08
1.11772e-08
0
0
0
0
0
1.2643e-07
3.77286e-07
8.3421e-07
1.65578e-06
3.04243e-06
4.98294e-06
6.14291e-06
1.70433e-06
0
0
0
0
0
0
0
0
2.31264e-07
4.65251e-07
4.87196e-08
0
0
0
0
0
0
0
0
0
0
0
0
0
0
0
0
0
0
0
0
0
0
0
0
0
0
0
0
0
0
0
0
0
0
0
0
0
0
0
0
0
0
0
0
0
0
0
0
0
0
0
0
0
0
0
0
0
0
0
0
0
0
2.05466e-06
2.05313e-06
1.36852e-06
8.62919e-07
6.97501e-07
6.95243e-07
6.7215e-07
5.83291e-07
5.55062e-07
5.34329e-07
3.80062e-07
3.36683e-07
6.79424e-07
3.90712e-06
1.08306e-05
1.24423e-05
5.03299e-06
5.56272e-06
4.3383e-06
3.39471e-06
2.73114e-06
1.16064e-06
0
1.71859e-07
0
0
0
0
0
3.62146e-07
0
0
0
0
0
0
0
0
0
4.56148e-06
4.61591e-06
3.58174e-06
3.82017e-07
3.28247e-07
4.20318e-07
2.85907e-07
0
0
0
1.04587e-06
1.53113e-06
1.68834e-06
1.76159e-06
1.81859e-06
1.85061e-06
1.77769e-06
1.57264e-06
1.4471e-06
1.45055e-06
1.59858e-06
1.22242e-06
4.83921e-08
4.20888e-07
1.27083e-06
1.70815e-06
1.67623e-06
2.57281e-06
3.71827e-06
2.08502e-06
1.13302e-06
5.24922e-07
1.69668e-07
6.13243e-08
7.49543e-08
7.37165e-08
5.04984e-08
3.01526e-08
1.04641e-08
0
0
0
0
0
0
0
0
0
0
1.45328e-07
5.3175e-07
3.0969e-07
9.4704e-08
0
0
0
0
0
0
0
4.58684e-08
3.98011e-07
1.01937e-06
2.0735e-06
3.85284e-06
6.69707e-06
1.02954e-05
1.11425e-05
8.29902e-07
0
0
0
0
0
3.42777e-08
1.45068e-08
8.89511e-08
1.21042e-07
0
0
0
0
0
0
0
0
0
0
0
0
0
0
0
0
0
0
0
0
0
0
0
0
0
0
0
0
0
0
0
0
0
0
0
0
0
0
0
0
0
0
0
0
0
0
0
0
0
0
0
0
0
0
0
0
0
0
0
0
0
0
0
4.50517e-07
2.97419e-06
2.33019e-06
1.39135e-06
9.04805e-07
7.79291e-07
7.186e-07
6.21679e-07
4.68718e-07
4.34368e-07
3.49084e-07
3.13487e-07
4.58812e-07
1.41197e-06
1.29553e-05
9.87328e-06
1.95516e-06
5.07233e-06
4.39158e-06
3.45775e-06
2.84939e-06
1.43394e-06
0
0
0
0
0
0
0
0
7.22022e-07
0
0
0
0
0
0
0
0
1.03268e-05
1.70819e-05
1.83066e-05
1.93924e-06
0
0
0
0
0
0
0
0
0
0
0
7.68949e-08
0
0
0
0
0
0
0
0
9.79436e-08
5.47197e-07
1.61496e-06
3.35568e-06
2.29153e-06
1.34203e-06
7.86958e-07
3.58996e-07
1.51185e-07
1.12616e-07
1.32072e-07
1.3454e-07
1.10884e-07
7.13159e-08
4.19368e-08
9.26953e-09
0
0
0
0
0
0
0
0
0
0
4.8892e-07
4.07862e-07
1.43863e-07
0
0
0
0
0
0
0
0
4.10639e-07
1.13866e-06
2.34024e-06
4.33332e-06
7.64035e-06
1.25717e-05
1.8618e-05
1.80773e-05
0
0
0
0
0
2.73113e-07
1.31512e-07
0
0
0
0
0
0
0
0
0
0
0
0
0
0
0
0
0
0
1.74429e-07
2.98665e-07
1.42357e-07
2.61521e-08
0
5.10029e-09
3.24253e-09
0
0
0
0
6.68011e-09
3.12462e-09
0
0
0
0
0
0
0
0
0
0
0
0
0
0
0
0
0
0
0
0
0
0
0
0
0
0
0
0
0
0
0
0
0
0
0
2.368e-06
3.42647e-06
2.16437e-06
1.24974e-06
9.1398e-07
7.81862e-07
6.64876e-07
4.7968e-07
3.49553e-07
3.22324e-07
3.03664e-07
3.97761e-07
5.80616e-07
5.34709e-07
0
0
4.21135e-06
4.29154e-06
3.45654e-06
2.9544e-06
1.73931e-06
0
0
0
0
0
0
0
0
9.98588e-08
0
0
0
0
0
0
0
0
1.36944e-05
3.19106e-05
4.39305e-05
1.11502e-06
0
0
0
0
0
0
0
0
0
0
0
0
0
0
0
0
0
0
0
0
3.00344e-08
9.46949e-07
2.61225e-06
2.04406e-06
1.35842e-06
8.81328e-07
4.99834e-07
2.80409e-07
1.962e-07
1.76162e-07
1.60178e-07
1.42672e-07
1.25216e-07
9.76823e-08
7.23825e-08
4.21606e-08
1.03792e-09
0
0
0
0
0
0
0
0
0
0
4.11227e-07
2.01221e-07
6.42681e-09
0
0
0
0
0
0
1.36397e-08
4.59749e-07
1.23676e-06
2.49269e-06
4.52246e-06
7.8371e-06
1.28161e-05
2.02542e-05
2.85976e-05
2.74291e-05
2.86193e-06
0
0
0
4.61728e-07
2.30419e-07
0
0
0
0
0
2.50104e-08
1.16878e-06
0
0
0
0
0
0
0
0
0
0
0
3.45894e-07
6.47055e-07
4.54828e-07
2.41645e-07
1.36362e-07
9.66152e-08
6.95838e-08
3.75563e-08
1.26847e-08
5.03506e-09
9.65167e-09
1.70881e-08
1.72699e-08
9.21964e-09
3.30009e-10
0
0
0
0
0
0
0
0
0
0
0
0
0
0
0
0
0
0
0
0
0
0
0
0
0
0
0
0
0
0
0
0
0
0
4.10315e-06
3.14538e-06
1.75478e-06
1.1152e-06
8.72825e-07
7.05099e-07
5.24731e-07
3.14548e-07
2.87475e-07
2.85947e-07
3.61386e-07
3.65018e-07
0
0
0
3.31034e-06
4.05138e-06
3.40591e-06
3.07475e-06
2.09722e-06
0
0
0
0
0
0
0
0
0
0
0
0
0
0
0
0
0
8.94889e-06
3.80452e-05
7.21644e-05
0
0
0
0
0
0
0
0
0
0
0
0
0
0
0
0
0
0
0
0
0
5.87008e-07
1.74288e-06
1.56155e-06
1.15765e-06
7.59426e-07
5.35414e-07
4.09372e-07
3.33914e-07
2.82944e-07
2.21758e-07
1.65903e-07
1.34982e-07
1.17662e-07
9.96542e-08
8.41897e-08
6.28538e-08
3.5129e-08
0
0
0
0
0
0
0
0
0
0
0
1.58019e-07
4.07715e-08
0
0
0
0
0
0
1.28524e-07
5.71313e-07
1.3326e-06
2.54399e-06