/*--------------------------------*- C++ -*----------------------------------*\
  =========                 |
  \\      /  F ield         | OpenFOAM: The Open Source CFD Toolbox
   \\    /   O peration     | Website:  https://openfoam.org
    \\  /    A nd           | Version:  6
     \\/     M anipulation  |
\*---------------------------------------------------------------------------*/
FoamFile
{
    version     2.0;
    format      ascii;
    class       volScalarField;
    location    "0.45";
    object      p;
}
// * * * * * * * * * * * * * * * * * * * * * * * * * * * * * * * * * * * * * //

dimensions      [0 2 -2 0 0 0 0];

internalField   nonuniform List<scalar> 
12225
(
346.103
338.03
330.995
324.466
318.25
312.472
307.145
302.233
297.692
293.467
289.507
285.749
282.123
278.551
275.011
271.384
267.59
263.407
345.448
337.982
330.976
324.438
318.213
312.439
307.121
302.218
297.682
293.458
289.499
285.747
282.131
278.582
275.056
271.479
267.758
263.833
345.259
337.893
330.964
324.413
318.19
312.425
307.109
302.202
297.664
293.442
289.491
285.75
282.153
278.633
275.147
271.648
268.063
264.444
343.894
337.794
331.021
324.401
318.124
312.348
307.04
302.154
297.638
293.436
289.498
285.768
282.188
278.7
275.27
271.864
268.452
265.111
345.306
337.856
331.054
324.366
318.048
312.265
306.965
302.087
297.577
293.385
289.465
285.766
282.228
278.8
275.446
272.148
268.905
265.778
344.272
337.853
331.045
324.307
317.957
312.156
306.857
301.991
297.503
293.338
289.451
285.785
282.285
278.909
275.633
272.449
269.364
266.419
343.613
338.064
331.086
324.213
317.806
311.981
306.688
301.843
297.381
293.249
289.401
285.783
282.344
279.048
275.87
272.805
269.862
267.073
343.888
338.221
331.109
324.065
317.604
311.782
306.507
301.686
297.252
293.153
289.345
285.777
282.4
279.181
276.1
273.154
270.35
267.717
346.545
338.769
331.244
323.97
317.363
311.473
306.194
301.409
297.031
293
289.263
285.769
282.475
279.35
276.376
273.549
270.875
268.376
346.133
339.293
331.253
323.678
317.014
311.149
305.888
301.121
296.78
292.802
289.13
285.713
282.506
279.477
276.61
273.901
271.358
268.991
347.909
339.958
331.165
323.283
316.499
310.624
305.408
300.721
296.475
292.592
289.004
285.666
282.542
279.61
276.853
274.265
271.847
269.604
353.197
340.837
331.031
322.822
315.934
310.051
304.87
300.242
296.078
292.29
288.803
285.566
282.548
279.726
277.08
274.602
272.293
270.153
357.419
341.555
330.585
322.062
315.137
309.32
304.239
299.712
295.646
291.954
288.562
285.42
282.5
279.781
277.244
274.878
272.682
270.655
360.394
341.338
329.491
320.835
313.966
308.263
303.32
298.941
295.024
291.478
288.224
285.214
282.425
279.837
277.436
275.206
273.14
271.234
355.771
338.661
327.124
318.805
312.193
306.697
301.971
297.819
294.108
290.746
287.673
284.846
282.232
279.807
277.555
275.467
273.538
271.765
349.723
333.035
322.706
315.264
309.316
304.343
300.038
296.238
292.826
289.723
286.885
284.277
281.871
279.647
277.589
275.685
273.927
272.308
327.831
321.855
315.438
309.966
305.2
301.026
297.331
294.033
291.053
288.325
285.812
283.488
281.33
279.326
277.466
275.743
274.154
272.694
307.179
308.076
305.98
302.676
299.468
296.485
293.664
291.021
288.558
286.266
284.139
282.166
280.335
278.634
277.054
275.586
274.224
272.961
300.249
297.923
296.145
294.29
292.429
290.554
288.692
286.906
285.199
283.555
281.974
280.463
279.022
277.65
276.347
275.118
273.965
272.888
284.59
286.112
286.586
286.363
285.898
285.254
284.364
283.319
282.221
281.086
279.918
278.752
277.621
276.535
275.491
274.493
273.547
272.656
272.952
277.79
279.963
280.952
281.367
281.379
281.059
280.516
279.872
279.146
278.332
277.467
276.592
275.721
274.857
274.011
273.192
272.405
272.03
273.38
275.109
276.548
277.584
278.216
278.436
278.354
278.093
277.679
277.114
276.449
275.741
275.02
274.295
273.571
272.858
272.161
268.256
268.798
270.926
273.16
274.849
275.957
276.545
276.753
276.724
276.516
276.155
275.679
275.128
274.527
273.892
273.24
272.585
271.941
259.299
263.645
267.513
270.515
272.672
274.16
275.101
275.619
275.823
275.772
275.512
275.108
274.622
274.094
273.539
272.967
272.386
271.802
249.951
259.55
264.799
268.464
271.09
272.913
274.065
274.715
275.034
275.12
275.013
274.746
274.36
273.891
273.366
272.807
272.235
271.667
248.53
257.18
263.009
267.122
270.001
272.024
273.374
274.192
274.619
274.756
274.669
274.417
274.057
273.631
273.16
272.659
272.14
271.615
249.261
255.591
261.676
266.148
269.284
271.461
272.896
273.778
274.279
274.501
274.493
274.303
273.98
273.566
273.093
272.587
272.067
271.548
243.996
254.091
260.783
265.547
268.834
271.109
272.619
273.554
274.087
274.328
274.34
274.171
273.868
273.47
273.01
272.52
272.021
271.523
242.638
253.414
260.336
265.202
268.557
270.89
272.454
273.44
274.01
274.272
274.293
274.129
273.829
273.431
272.97
272.479
271.984
271.5
240.505
253.016
260.192
265.111
268.491
270.835
272.395
273.376
273.953
274.23
274.271
274.124
273.832
273.431
272.963
272.465
271.966
271.486
257.197
257.081
257.046
257.283
257.742
258.165
258.357
258.214
257.735
256.985
256.037
254.942
253.733
252.437
251.076
249.676
248.257
246.84
245.445
244.093
242.805
241.604
240.515
239.561
238.762
238.147
237.715
237.467
237.412
237.502
237.758
238.133
238.497
238.927
239.236
239
238.266
237.384
236.816
236.715
236.795
236.867
236.953
237.107
237.381
237.816
238.429
239.209
240.124
241.122
242.144
243.125
243.947
244.481
244.638
244.458
244.141
243.799
243.247
242.555
243.252
244.967
243.538
236.91
226.95
215.294
203.508
192.502
182.794
174.552
167.784
162.399
158.294
155.372
153.562
152.769
152.888
153.811
155.423
157.603
160.23
163.19
166.38
169.706
173.091
176.469
179.786
182.997
186.067
188.969
191.682
194.19
196.483
198.553
200.4
202.023
203.426
204.616
205.601
206.39
206.996
207.431
207.707
207.837
207.831
207.697
207.442
207.068
206.575
205.962
205.227
204.37
203.395
202.307
201.121
199.855
198.532
197.178
195.827
194.509
193.251
192.069
190.957
189.885
188.807
187.671
186.438
185.088
183.621
182.055
180.414
178.724
177.013
175.305
173.62
171.976
170.383
168.849
167.379
165.971
164.606
163.28
162.011
160.773
159.517
158.297
157.233
156.254
154.956
152.983
150.776
149.234
148.502
147.983
147.259
146.295
145.109
143.696
142.142
140.6
139.188
137.95
136.816
135.564
133.983
132.141
130.382
128.9
127.398
125.546
123.42
121.195
118.747
115.648
111.475
106.171
100.061
93.6296
87.344
81.3721
256.566
256.384
256.333
256.544
256.947
257.277
257.356
257.128
256.617
255.88
254.971
253.928
252.779
251.548
250.254
248.916
247.553
246.183
244.825
243.497
242.222
241.026
239.93
238.964
238.15
237.497
237.024
236.727
236.614
236.663
236.824
237.123
237.407
237.665
238.069
237.955
237.101
236.707
236.968
236.998
236.772
236.654
236.65
236.737
236.971
237.396
238.024
238.847
239.837
240.94
242.089
243.21
244.17
244.882
245.196
245.112
244.72
243.92
243.273
242.067
240.16
239.142
235.199
227.563
217.94
207.306
196.863
187.127
178.525
171.157
165.07
160.199
156.487
153.857
152.241
151.576
151.8
152.816
154.517
156.783
159.492
162.529
165.789
169.182
172.629
176.065
179.436
182.697
185.813
188.756
191.504
194.043
196.36
198.451
200.313
201.948
203.358
204.553
205.539
206.328
206.931
207.363
207.635
207.761
207.753
207.619
207.367
206.999
206.515
205.912
205.187
204.339
203.37
202.286
201.099
199.827
198.493
197.126
195.757
194.423
193.153
191.968
190.864
189.812
188.76
187.649
186.435
185.096
183.634
182.065
180.418
178.721
177.001
175.286
173.595
171.947
170.351
168.816
167.35
165.947
164.585
163.262
161.994
160.759
159.514
158.285
157.148
156.108
154.744
152.716
150.635
149.268
148.582
148.022
147.266
146.302
145.12
143.707
142.146
140.586
139.163
137.93
136.808
135.577
134.005
132.156
130.401
128.912
127.384
125.509
123.381
121.177
118.74
115.587
111.308
105.914
99.7563
93.2921
86.9278
80.8576
256.33
256.171
256.047
256.076
256.196
256.228
256.061
255.672
255.085
254.331
253.44
252.438
251.344
250.176
248.947
247.671
246.362
245.034
243.704
242.392
241.116
239.902
238.773
237.759
236.886
236.182
235.675
235.369
235.26
235.326
235.534
235.865
236.205
236.519
236.791
236.798
236.749
237.01
237.069
236.714
236.446
236.309
236.157
236.084
236.214
236.587
237.208
238.066
239.145
240.402
241.759
243.145
244.477
245.612
246.406
246.765
246.446
245.027
242.415
238.936
234.231
228.894
222.133
214.236
205.592
196.644
187.958
179.853
172.623
166.364
161.133
156.904
153.659
151.363
149.993
149.521
149.904
151.068
152.91
155.31
158.145
161.301
164.673
168.172
171.723
175.26
178.729
182.084
185.287
188.31
191.129
193.729
196.098
198.23
200.125
201.783
203.211
204.415
205.406
206.195
206.796
207.222
207.487
207.607
207.594
207.46
207.212
206.853
206.383
205.798
205.093
204.262
203.305
202.228
201.041
199.762
198.413
197.023
195.628
194.265
192.974
191.782
190.692
189.674
188.666
187.6
186.42
185.101
183.645
182.073
180.415
178.705
176.971
175.242
173.541
171.885
170.287
168.755
167.29
165.888
164.538
163.23
161.963
160.719
159.474
158.242
157.053
155.872
154.448
152.676
150.973
149.716
148.859
148.093
147.204
146.173
145.009
143.656
142.117
140.585
139.232
138.012
136.838
135.581
134.031
132.209
130.451
128.94
127.402
125.53
123.401
121.173
118.646
115.318
110.868
105.392
99.225
92.7375
86.2609
80.0343
256.518
256.448
256.221
255.933
255.635
255.281
254.811
254.208
253.481
252.65
251.73
250.732
249.665
248.537
247.353
246.12
244.848
243.549
242.235
240.924
239.635
238.391
237.214
236.132
235.175
234.37
233.755
233.359
233.199
233.287
233.593
234.065
234.629
235.203
235.754
236.231
236.56
236.683
236.633
236.569
236.426
236.071
235.644
235.332
235.238
235.415
235.882
236.649
237.721
239.082
240.684
242.458
244.295
246.005
247.413
248.104
247.092
244.163
239.243
232.842
225.595
217.949
210.066
202.158
194.212
186.45
179.089
172.334
166.334
161.141
156.765
153.187
150.405
148.429
147.286
146.996
147.54
148.855
150.838
153.367
156.322
159.592
163.077
166.695
170.37
174.038
177.642
181.132
184.466
187.611
190.542
193.24
195.692
197.892
199.84
201.538
202.994
204.216
205.216
206.008
206.606
207.024
207.279
207.388
207.365
207.224
206.976
206.625
206.171
205.608
204.93
204.125
203.19
202.126
200.941
199.654
198.287
196.87
195.44
194.039
192.716
191.511
190.436
189.458
188.504
187.493
186.356
185.064
183.618
182.044
180.377
178.653
176.907
175.165
173.453
171.789
170.186
168.656
167.2
165.812
164.476
163.175
161.906
160.664
159.427
158.176
156.932
155.697
154.364
152.861
151.336
150.009
148.966
148.061
147.113
146.065
144.899
143.569
142.108
140.672
139.332
138.046
136.823
135.593
134.093
132.256
130.454
128.958
127.483
125.673
123.556
121.232
118.49
114.915
110.304
104.774
98.6014
92.0812
85.4829
79.0698
256.844
256.686
256.275
255.717
255.107
254.455
253.748
252.987
252.176
251.316
250.404
249.435
248.405
247.316
246.169
244.971
243.729
242.453
241.157
239.855
238.569
237.317
236.124
235.014
234.012
233.147
232.447
231.933
231.652
231.657
231.938
232.475
233.223
234.057
234.897
235.66
236.138
236.312
236.453
236.628
236.559
236.099
235.379
234.632
234.048
233.744
233.778
234.199
235.058
236.384
238.166
240.335
242.678
244.875
246.524
246.746
244.546
239.558
232.448
224.314
215.974
207.714
199.644
191.847
184.383
177.417
171.048
165.373
160.409
156.133
152.495
149.464
147.048
145.305
144.317
144.149
144.806
146.228
148.31
150.931
153.973
157.332
160.92
164.656
168.471
172.297
176.074
179.744
183.258
186.576
189.667
192.51
195.088
197.395
199.43
201.196
202.703
203.96
204.982
205.785
206.384
206.796
207.039
207.132
207.092
206.938
206.679
206.325
205.877
205.33
204.674
203.9
202.997
201.961
200.797
199.513
198.132
196.684
195.207
193.75
192.373
191.133
190.058
189.12
188.231
187.281
186.189
184.922
183.49
181.924
180.258
178.53
176.776
175.028
173.313
171.651
170.052
168.527
167.077
165.698
164.378
163.101
161.85
160.613
159.367
158.102
156.852
155.625
154.337
152.898
151.405
150.083
149.014
148.06
147.068
145.989
144.819
143.528
142.13
140.715
139.359
138.065
136.828
135.575
134.074
132.256
130.481
129.034
127.644
125.914
123.799
121.335
118.34
114.52
109.742
104.125
97.9044
91.3144
84.574
77.9519
256.778
256.471
255.915
255.244
254.52
253.782
253.032
252.259
251.448
250.591
249.682
248.714
247.684
246.593
245.446
244.25
243.014
241.75
240.471
239.194
237.934
236.712
235.549
234.468
233.493
232.642
231.935
231.401
231.088
231.038
231.276
231.826
232.628
233.549
234.54
235.484
236.127
236.468
236.77
237.042
236.992
236.368
235.218
233.827
232.472
231.332
230.531
230.224
230.57
231.661
233.506
235.954
238.613
240.902
242.123
241.27
237.545
231.021
222.997
214.546
206.165
198.015
190.169
182.727
175.82
169.582
164.066
159.28
155.152
151.588
148.492
145.822
143.607
141.955
141.011
140.886
141.606
143.102
145.257
147.941
151.043
154.471
158.149
162.005
165.974
169.986
173.972
177.866
181.607
185.147
188.448
191.481
194.23
196.685
198.846
200.715
202.304
203.623
204.689
205.519
206.132
206.547
206.784
206.864
206.808
206.636
206.36
205.992
205.536
204.991
204.347
203.592
202.714
201.706
200.569
199.313
197.951
196.501
194.994
193.482
192.033
190.727
189.618
188.687
187.84
186.945
185.899
184.657
183.234
181.669
180.01
178.297
176.558
174.819
173.106
171.446
169.857
168.352
166.93
165.574
164.271
163.008
161.771
160.543
159.306
158.053
156.796
155.538
154.223
152.814
151.412
150.161
149.078
148.068
147.037
145.946
144.777
143.499
142.118
140.718
139.381
138.087
136.798
135.484
134.002
132.27
130.556
129.146
127.832
126.185
124.061
121.454
118.231
114.175
109.201
103.463
97.1499
90.4199
83.4667
76.5812
256.147
255.841
255.361
254.758
254.105
253.433
252.726
251.978
251.177
250.311
249.375
248.369
247.298
246.168
244.99
243.774
242.534
241.283
240.037
238.81
237.62
236.481
235.412
234.429
233.546
232.777
232.137
231.655
231.373
231.34
231.596
232.142
232.922
233.884
234.965
235.958
236.652
237.14
237.598
237.922
237.735
236.713
234.913
232.656
230.233
227.841
225.74
224.294
223.833
224.534
226.364
228.966
231.648
233.59
233.996
232.066
227.351
220.42
212.603
204.561
196.576
188.822
181.425
174.53
168.282
162.775
158.026
153.977
150.496
147.438
144.678
142.172
139.987
138.304
137.349
137.272
138.08
139.66
141.862
144.563
147.674
151.128
154.869
158.837
162.965
167.181
171.404
175.556
179.564
183.367
186.917
190.181
193.138
195.775
198.091
200.091
201.784
203.186
204.314
205.189
205.832
206.265
206.509
206.588
206.524
206.338
206.045
205.658
205.184
204.625
203.979
203.233
202.372
201.388
200.283
199.062
197.734
196.309
194.811
193.283
191.79
190.419
189.245
188.27
187.404
186.512
185.479
184.256
182.847
181.295
179.645
177.942
176.218
174.502
172.818
171.185
169.615
168.12
166.707
165.381
164.13
162.913
161.694
160.472
159.244
157.991
156.714
155.428
154.122
152.776
151.443
150.21
149.102
148.064
147.014
145.906
144.726
143.456
142.101
140.728
139.392
138.072
136.738
135.387
133.937
132.291
130.641
129.26
128
126.418
124.275
121.539
118.126
113.85
108.681
102.813
96.3548
89.3776
82.1016
74.8796
255.621
255.452
255.088
254.595
254.058
253.473
252.821
252.094
251.275
250.36
249.357
248.284
247.153
245.972
244.754
243.511
242.26
241.019
239.808
238.644
237.546
236.529
235.607
234.791
234.088
233.501
233.041
232.723
232.572
232.626
232.921
233.459
234.219
235.153
236.137
237.002
237.713
238.37
238.936
239.141
238.529
236.854
234.241
230.935
227.127
223.089
219.396
216.718
215.495
215.918
217.78
220.373
222.772
224.157
223.844
221.304
216.355
209.792
202.61
195.146
187.668
180.406
173.54
167.246
161.652
156.822
152.738
149.286
146.288
143.561
140.966
138.481
136.242
134.531
133.632
133.671
134.575
136.175
138.321
140.928
143.954
147.371
151.143
155.216
159.519
163.965
168.458
172.904
177.217
181.323
185.161
188.69
191.882
194.724
197.214
199.357
201.167
202.662
203.864
204.796
205.481
205.942
206.204
206.292
206.23
206.039
205.738
205.339
204.851
204.277
203.615
202.86
202.001
201.032
199.953
198.766
197.479
196.098
194.635
193.118
191.606
190.188
188.947
187.901
186.969
186.018
184.944
183.702
182.303
180.776
179.159
177.485
175.789
174.101
172.442
170.83
169.286
167.825
166.454
165.163
163.931
162.738
161.571
160.397
159.182
157.92
156.636
155.356
154.068
152.749
151.44
150.222
149.115
148.062
146.994
145.873
144.692
143.437
142.102
140.731
139.376
138.034
136.684
135.314
133.876
132.292
130.702
129.339
128.102
126.559
124.39
121.552
117.992
113.53
108.181
102.162
95.4826
88.1507
80.4709
72.8711
255.608
255.485
255.189
254.805
254.36
253.814
253.157
252.382
251.499
250.527
249.478
248.355
247.162
245.913
244.627
243.328
242.045
240.802
239.623
238.53
237.539
236.668
235.927
235.325
234.864
234.545
234.364
234.311
234.392
234.631
235.041
235.604
236.295
237.07
237.848
238.602
239.371
240.101
240.563
240.359
239.11
236.728
233.287
228.837
223.511
217.864
212.88
209.401
207.878
208.32
210.126
212.381
214.235
215.004
214.146
211.303
206.467
200.432
193.814
186.832
179.812
173.011
166.637
160.877
155.846
151.588
148.044
145.056
142.409
139.89
137.366
134.856
132.59
130.924
130.134
130.255
131.128
132.572
134.487
136.862
139.716
143.057
146.861
151.069
155.594
160.327
165.15
169.949
174.623
179.081
183.25
187.077
190.529
193.592
196.265
198.559
200.491
202.084
203.362
204.355
205.087
205.585
205.874
205.979
205.924
205.734
205.429
205.023
204.526
203.943
203.276
202.518
201.66
200.696
199.627
198.46
197.204
195.861
194.432
192.936
191.422
189.975
188.679
187.551
186.523
185.479
184.332
183.047
181.634
180.12
178.535
176.907
175.258
173.609
171.986
170.412
168.905
167.473
166.122
164.858
163.672
162.537
161.414
160.267
159.082
157.852
156.586
155.305
154.014
152.71
151.436
150.244
149.136
148.069
146.991
145.863
144.678
143.425
142.096
140.723
139.354
138
136.637
135.245
133.805
132.266
130.72
129.353
128.111
126.584
124.392
121.483
117.823
113.207
107.685
101.475
94.4959
86.7477
78.6317
70.6401
255.873
255.759
255.52
255.182
254.734
254.162
253.475
252.679
251.775
250.764
249.642
248.416
247.105
245.736
244.343
242.966
241.642
240.401
239.273
238.28
237.441
236.768
236.268
235.943
235.788
235.796
235.945
236.214
236.593
237.079
237.637
238.214
238.798
239.406
240.056
240.775
241.526
242.106
242.198
241.434
239.627
236.732
232.63
227.197
220.685
214.044
208.525
204.962
203.583
204.023
205.465
207.062
208.131
208.128
206.657
203.454
198.649
192.911
186.586
179.893
173.193
166.734
160.738
155.391
150.796
146.979
143.847
141.212
138.824
136.452
133.97
131.456
129.207
127.601
126.841
126.866
127.49
128.573
130.101
132.15
134.791
138.052
141.911
146.299
151.107
156.199
161.431
166.661
171.765
176.635
181.186
185.354
189.1
192.408
195.281
197.734
199.79
201.48
202.834
203.885
204.664
205.2
205.519
205.647
205.609
205.427
205.124
204.716
204.215
203.626
202.951
202.19
201.337
200.385
199.33
198.178
196.939
195.616
194.211
192.734
191.229
189.771
188.43
187.215
186.068
184.905
183.666
182.33
180.9
179.394
177.833
176.235
174.624
173.021
171.446
169.914
168.443
167.049
165.742
164.522
163.375
162.276
161.191
160.093
158.958
157.774
156.535
155.257
153.97
152.694
151.455
150.28
149.17
148.094
147.007
145.867
144.668
143.415
142.094
140.722
139.341
137.967
136.583
135.17
133.727
132.217
130.688
129.295
128.026
126.5
124.294
121.345
117.621
112.877
107.173
100.73
93.4101
85.2238
76.6464
68.2537
256.086
255.977
255.745
255.403
254.947
254.37
253.674
252.855
251.891
250.764
249.478
248.054
246.524
244.937
243.348
241.813
240.391
239.133
238.081
237.268
236.706
236.39
236.305
236.425
236.721
237.163
237.72
238.371
239.095
239.842
240.539
241.141
241.679
242.225
242.821
243.449
243.995
244.226
243.857
242.687
240.635
237.554
233.131
227.217
220.283
213.517
208.153
204.842
203.559
203.704
204.448
205.093
205.129
204.167
201.908
198.147
193.132
187.36
181.038
174.416
167.857
161.582
155.821
150.744
146.443
142.931
140.098
137.734
135.557
133.312
130.881
128.385
126.153
124.524
123.616
123.328
123.504
124.072
125.108
126.764
129.149
132.303
136.208
140.792
145.928
151.452
157.18
162.934
168.553
173.908
178.898
183.453
187.533
191.121
194.223
196.859
199.058
200.857
202.291
203.401
204.224
204.794
205.142
205.294
205.274
205.105
204.809
204.405
203.905
203.317
202.643
201.882
201.029
200.081
199.036
197.897
196.672
195.365
193.977
192.519
191.028
189.564
188.175
186.866
185.599
184.321
182.995
181.605
180.151
178.643
177.093
175.516
173.931
172.357
170.816
169.327
167.905
166.562
165.302
164.127
163.026
161.976
160.941
159.89
158.804
157.666
156.466
155.221
153.962
152.712
151.493
150.332
149.223
148.139
147.041
145.886
144.674
143.419
142.102
140.726
139.328
137.929
136.521
135.091
133.643
132.146
130.612
129.175
127.863
126.327
124.118
121.151
117.387
112.531
106.641
99.94
92.2659
83.6308
74.5666
65.793
255.948
255.839
255.606
255.26
254.79
254.189
253.443
252.509
251.345
249.93
248.272
246.414
244.425
242.382
240.378
238.518
236.905
235.63
234.758
234.311
234.274
234.603
235.238
236.113
237.157
238.298
239.478
240.654
241.786
242.817
243.701
244.452
245.122
245.709
246.189
246.534
246.699
246.55
245.88
244.602
242.627
239.715
235.504
229.879
223.354
217.056
212.067
208.882
207.322
206.763
206.508
206.017
204.918
202.918
199.735
195.248
189.788
183.705
177.141
170.393
163.795
157.541
151.861
146.904
142.757
139.429
136.8
134.646
132.653
130.536
128.174
125.705
123.448
121.671
120.433
119.65
119.227
119.153
119.588
120.761
122.806
125.774
129.669
134.427
139.912
145.929
152.25
158.641
164.891
170.831
176.338
181.338
185.791
189.688
193.042
195.882
198.246
200.175
201.709
202.891
203.765
204.372
204.748
204.924
204.924
204.769
204.483
204.083
203.585
202.998
202.324
201.565
200.716
199.774
198.738
197.609
196.395
195.101
193.73
192.293
190.816
189.339
187.896
186.496
185.124
183.75
182.351
180.911
179.426
177.901
176.344
174.768
173.192
171.637
170.123
168.669
167.29
165.996
164.792
163.677
162.637
161.645
160.665
159.664
158.624
157.535
156.393
155.202
153.98
152.754
151.557
150.411
149.303
148.21
147.1
145.929
144.699
143.434
142.114
140.73
139.313
137.89
136.459
135.011
133.552
132.054
130.5
129.007
127.641
126.091
123.882
120.907
117.117
112.167
106.095
99.1282
91.1012
82.0232
72.4842
63.3925
255.255
255.143
254.9
254.526
254.004
253.302
252.365
251.117
249.495
247.49
245.141
242.513
239.705
236.86
234.159
231.798
229.952
228.741
228.218
228.37
229.13
230.402
232.084
234.068
236.238
238.47
240.65
242.68
244.482
246
247.241
248.291
249.212
249.893
250.184
250.116
249.834
249.387
248.644
247.49
245.809
243.381
239.901
235.238
229.739
224.264
219.674
216.349
214.143
212.59
211.171
209.482
207.215
204.085
199.831
194.477
188.386
181.791
174.804
167.771
160.978
154.599
148.857
143.881
139.757
136.494
133.972
131.961
130.131
128.163
125.904
123.474
121.144
119.115
117.409
115.996
114.85
114.02
113.756
114.347
115.934
118.589
122.36
127.214
133.021
139.562
146.556
153.701
160.715
167.372
173.512
179.043
183.928
188.168
191.791
194.841
197.371
199.433
201.074
202.339
203.273
203.922
204.33
204.532
204.554
204.418
204.145
203.754
203.259
202.672
201.997
201.235
200.385
199.446
198.417
197.301
196.101
194.823
193.469
192.048
190.574
189.077
187.584
186.112
184.658
183.206
181.738
180.239
178.709
177.15
175.57
173.983
172.408
170.865
169.371
167.947
166.608
165.366
164.224
163.175
162.202
161.276
160.361
159.423
158.44
157.405
156.318
155.182
154.009
152.821
151.651
150.521
149.413
148.308
147.183
145.992
144.74
143.459
142.131
140.736
139.301
137.853
136.397
134.927
133.451
131.946
130.363
128.807
127.379
125.81
123.602
120.622
116.814
111.791
105.551
98.3246
89.9603
80.4817
70.5364
61.2014
253.921
253.8
253.526
253.072
252.398
251.447
250.128
248.332
246.012
243.178
239.853
236.089
232.045
227.995
224.264
221.16
218.92
217.684
217.51
218.377
220.188
222.779
225.958
229.544
233.353
237.179
240.819
244.119
246.979
249.347
251.235
252.722
253.873
254.599
254.736
254.341
253.693
253.036
252.313
251.364
250.065
248.267
245.752
242.366
238.234
233.833
229.743
226.273
223.381
220.801
218.196
215.26
211.708
207.262
201.783
195.463
188.63
181.399
173.885
166.462
159.361
152.742
146.821
141.706
137.483
134.165
131.64
129.7
128.021
126.235
124.125
121.751
119.329
116.997
114.755
112.634
110.695
109.052
108.03
107.945
108.924
111.084
114.555
119.36
125.396
132.43
140.129
148.111
156.007
163.509
170.404
176.571
181.969
186.608
190.531
193.803
196.499
198.691
200.436
201.782
202.776
203.465
203.899
204.122
204.164
204.048
203.792
203.414
202.928
202.344
201.669
200.906
200.055
199.116
198.092
196.986
195.799
194.533
193.19
191.773
190.294
188.777
187.247
185.72
184.197
182.668
181.121
179.55
177.956
176.347
174.733
173.127
171.547
170.016
168.548
167.16
165.868
164.683
163.605
162.627
161.728
160.878
160.037
159.172
158.259
157.285
156.251
155.164
154.039
152.895
151.758
150.644
149.537
148.423
147.283
146.071
144.795
143.495
142.153
140.746
139.293
137.822
136.337
134.839
133.344
131.824
130.206
128.583
127.088
125.499
123.293
120.306
116.485
111.413
105.031
97.5657
88.9023
79.1002
68.8511
59.3366
252.063
251.919
251.584
251.002
250.109
248.826
247.04
244.617
241.495
237.672
233.111
227.856
222.175
216.503
211.307
207.009
203.95
202.37
202.402
204.08
207.276
211.667
216.841
222.487
228.422
234.385
240.001
244.96
249.142
252.553
255.252
257.312
258.762
259.551
259.624
259.08
258.215
257.377
256.641
255.871
254.929
253.696
252.061
249.899
247.143
243.931
240.524
237.125
233.764
230.32
226.601
222.386
217.44
211.594
204.902
197.66
190.101
182.224
174.172
166.326
158.865
151.941
145.763
140.42
135.995
132.507
129.871
127.923
126.365
124.785
122.869
120.572
118.064
115.457
112.713
109.891
107.157
104.703
102.894
102.031
102.234
103.704
106.675
111.25
117.365
124.784
133.137
141.97
150.815
159.263
167.016
173.912
179.897
184.99
189.253
192.77
195.642
197.962
199.809
201.24
202.299
203.033
203.493
203.729
203.781
203.676
203.432
203.066
202.59
202.014
201.343
200.582
199.733
198.8
197.783
196.685
195.506
194.245
192.903
191.484
189.999
188.464
186.9
185.318
183.72
182.105
180.468
178.811
177.141
175.469
173.808
172.173
170.583
169.06
167.622
166.282
165.051
163.939
162.943
162.048
161.231
160.46
159.696
158.91
158.078
157.179
156.202
155.157
154.069
152.962
151.851
150.749
149.65
148.538
147.389
146.161
144.862
143.538
142.178
140.757
139.289
137.796
136.281
134.751
133.229
131.688
130.035
128.345
126.779
125.165
122.963
119.97
116.14
111.044
104.557
96.8928
87.9895
77.9556
67.514
57.8834
250.016
249.836
249.43
248.713
247.599
245.997
243.782
240.805
236.949
232.144
226.308
219.481
212.032
204.585
197.783
192.177
188.226
186.319
186.683
189.346
194.074
200.362
207.477
214.827
222.458
230.465
238.336
245.316
251.034
255.525
258.95
261.47
263.186
264.133
264.344
263.915
263.055
262.115
261.328
260.642
259.941
259.126
258.1
256.8
255.117
252.955
250.29
247.15
243.558
239.464
234.778
229.377
223.154
216.112
208.46
200.5
192.351
183.941
175.436
167.203
159.396
152.154
145.676
140.047
135.341
131.593
128.748
126.694
125.178
123.772
122.055
119.863
117.333
114.576
111.467
108.015
104.514
101.26
98.6175
96.8532
96.1093
96.6879
98.9514
103.105
109.137
116.814
125.731
135.372
145.182
154.643
163.347
171.056
177.692
183.287
187.925
191.713
194.772
197.221
199.165
200.678
201.807
202.595
203.092
203.35
203.414
203.317
203.08
202.72
202.25
201.681
201.016
200.261
199.418
198.492
197.485
196.394
195.221
193.963
192.621
191.198
189.702
188.144
186.535
184.887
183.206
181.496
179.761
178.01
176.255
174.51
172.79
171.113
169.5
167.976
166.56
165.268
164.11
163.091
162.203
161.418
160.702
160.022
159.343
158.639
157.889
157.072
156.168
155.17
154.108
153.019
151.918
150.82
149.73
148.631
147.486
146.251
144.934
143.586
142.205
140.767
139.285
137.771
136.227
134.663
133.106
131.535
129.849
128.1
126.459
124.81
122.617
119.622
115.788
110.697
104.152
96.344
87.275
77.1013
66.5734
56.9003
248.48
248.272
247.824
247.043
245.819
244.054
241.619
238.369
234.155
228.851
222.372
214.773
206.432
198.065
190.489
184.398
180.31
178.577
179.374
182.647
188.071
195.187
203.302
211.261
218.852
227.201
236.483
245.287
252.472
257.93
261.937
264.757
266.577
267.568
267.892
267.704
267.131
266.351
265.604
264.972
264.374
263.736
262.981
262.047
260.852
259.243
257.062
254.175
250.512
246.038
240.721
234.541
227.525
219.812
211.665
203.338
194.871
186.17
177.4
168.912
160.854
153.35
146.592
140.675
135.67
131.616
128.478
126.184
124.553
123.207
121.666
119.652
117.241
114.518
111.231
107.29
103.117
99.1276
95.6493
92.9214
91.1129
90.6226
91.9861
95.5583
101.39
109.233
118.616
128.951
139.621
150.032
159.679
168.221
175.524
181.624
186.637
190.7
193.95
196.525
198.553
200.128
201.313
202.148
202.682
202.967
203.052
202.97
202.744
202.391
201.929
201.367
200.711
199.965
199.13
198.212
197.211
196.126
194.956
193.7
192.356
190.927
189.415
187.825
186.166
184.449
182.682
180.875
179.038
177.184
175.331
173.497
171.701
169.965
168.317
166.784
165.384
164.132
163.044
162.125
161.358
160.707
160.123
159.561
158.982
158.362
157.69
156.956
156.131
155.193
154.16
153.076
151.97
150.86
149.769
148.685
147.555
146.325
145.002
143.634
142.23
140.775
139.277
137.742
136.17
134.574
132.977
131.367
129.654
127.856
126.138
124.441
122.258
119.267
115.438
110.381
103.834
95.951
86.7979
76.5744
66.0534
56.4042
247.853
247.622
247.162
246.404
245.207
243.474
241.088
237.916
233.82
228.681
222.436
215.145
207.11
198.966
191.539
185.575
181.578
179.851
180.59
183.805
189.094
195.882
203.943
212.087
219.041
226.236
235.444
245.348
253.633
259.665
263.898
266.819
268.76
269.854
270.238
270.143
269.765
269.234
268.665
268.137
267.618
267.051
266.37
265.486
264.352
262.846
260.778
257.971
254.281
249.638
244.04
237.535
230.234
222.331
214.082
205.689
197.161
188.415
179.595
171.015
162.836
155.177
148.218
142.072
136.807
132.449
128.972
126.347
124.49
123.113
121.724
119.932
117.703
115.08
111.748
107.545
102.923
98.3394
94.1167
90.4936
87.6393
86.0395
86.4308
89.3449
94.9018
102.831
112.582
123.465
134.797
145.958
156.395
165.679
173.597
180.159
185.506
189.81
193.234
195.928
198.031
199.657
200.881
201.75
202.309
202.613
202.711
202.643
202.429
202.088
201.635
201.083
200.439
199.706
198.885
197.977
196.982
195.9
194.731