/*--------------------------------*- C++ -*----------------------------------*\
  =========                 |
  \\      /  F ield         | OpenFOAM: The Open Source CFD Toolbox
   \\    /   O peration     | Website:  https://openfoam.org
    \\  /    A nd           | Version:  6
     \\/     M anipulation  |
\*---------------------------------------------------------------------------*/
FoamFile
{
    version     2.0;
    format      ascii;
    class       volVectorField;
    location    "0.45";
    object      U_0;
}
// * * * * * * * * * * * * * * * * * * * * * * * * * * * * * * * * * * * * * //

dimensions      [0 1 -1 0 0 0 0];

internalField   nonuniform List<vector> 
12225
(
(9.61383 0.0403734 0)
(9.4571 0.0962113 0)
(9.20407 0.0556023 0)
(8.95096 0.0139239 0)
(8.6838 0.0162688 0)
(8.40087 0.0419094 0)
(8.12991 0.0620018 0)
(7.88379 0.0655022 0)
(7.68055 0.0548042 0)
(7.50775 0.0397472 0)
(7.37019 0.0258652 0)
(7.23067 0.0209038 0)
(7.12326 0.0176976 0)
(6.98734 0.0223817 0)
(6.94578 0.011321 0)
(6.81773 0.0218873 0)
(6.91844 -0.0210017 0)
(6.83841 -0.0138188 0)
(9.80948 0.0149189 0)
(10.0122 -0.0451686 0)
(10.1262 0.0152828 0)
(10.1658 0.068425 0)
(10.1877 0.0856148 0)
(10.2029 0.0762712 0)
(10.2036 0.0605674 0)
(10.1835 0.049287 0)
(10.1581 0.0457962 0)
(10.1434 0.0477884 0)
(10.148 0.0540651 0)
(10.1648 0.0581507 0)
(10.1922 0.0613228 0)
(10.2201 0.0507653 0)
(10.2596 0.0382234 0)
(10.3008 0.0141717 0)
(10.3636 -0.0244071 0)
(10.4425 -0.0548608 0)
(9.94606 -0.00616519 0)
(9.80598 0.0835825 0)
(9.88068 0.0728705 0)
(10.0497 0.0619846 0)
(10.1788 0.0651102 0)
(10.2432 0.0750989 0)
(10.2737 0.0836477 0)
(10.2953 0.0814163 0)
(10.3175 0.0663951 0)
(10.3408 0.0434807 0)
(10.3661 0.0216339 0)
(10.3981 0.00654566 0)
(10.4429 0.00100793 0)
(10.5007 -0.00283873 0)
(10.5673 -0.00676491 0)
(10.6381 -0.0224842 0)
(10.7146 -0.0498778 0)
(10.7888 -0.0981438 0)
(9.82217 0.0718276 0)
(9.97039 0.0119186 0)
(10.0177 -0.0582549 0)
(10.0523 -0.0568309 0)
(10.0442 -0.0164022 0)
(10.0412 0.0207457 0)
(10.0869 0.0420453 0)
(10.1621 0.0505968 0)
(10.2253 0.0518523 0)
(10.2536 0.0479315 0)
(10.2535 0.0396872 0)
(10.2489 0.0271899 0)
(10.2625 0.0121055 0)
(10.3036 -0.0079473 0)
(10.3683 -0.0333745 0)
(10.4498 -0.0662139 0)
(10.5375 -0.109651 0)
(10.624 -0.169215 0)
(9.9558 -0.00086545 0)
(9.91508 0.00850193 0)
(9.88893 0.0492792 0)
(9.93472 0.0821695 0)
(10.0198 0.0898956 0)
(10.0954 0.0681425 0)
(10.1567 0.0332476 0)
(10.2175 0.00897176 0)
(10.2879 0.00455525 0)
(10.3609 0.010948 0)
(10.4181 0.0145865 0)
(10.4447 0.00802923 0)
(10.4416 -0.00763775 0)
(10.4242 -0.0318564 0)
(10.4127 -0.0625567 0)
(10.4216 -0.0999477 0)
(10.4536 -0.147129 0)
(10.5055 -0.203238 0)
(9.76577 0.118886 0)
(9.85745 -0.0171529 0)
(9.89727 -0.0736913 0)
(9.94085 -0.0810466 0)
(10.0166 -0.0561356 0)
(10.1114 -0.0156341 0)
(10.1854 0.0150585 0)
(10.2242 0.0264138 0)
(10.2519 0.023927 0)
(10.2949 0.0169063 0)
(10.3559 0.0121436 0)
(10.4224 0.00965646 0)
(10.4799 0.00386086 0)
(10.5218 -0.0133325 0)
(10.5459 -0.0462822 0)
(10.5613 -0.0929484 0)
(10.5724 -0.151665 0)
(10.5905 -0.213963 0)
(9.99122 0.084175 0)
(9.88509 -0.0184645 0)
(9.84344 -0.00831986 0)
(9.8298 0.0160505 0)
(9.87125 0.00517607 0)
(9.96399 -0.0163028 0)
(10.0867 -0.0307952 0)
(10.2073 -0.0370701 0)
(10.2976 -0.0398473 0)
(10.3439 -0.0418112 0)
(10.3515 -0.0417447 0)
(10.339 -0.0391425 0)
(10.324 -0.038038 0)
(10.3195 -0.0457066 0)
(10.3292 -0.0688671 0)
(10.3517 -0.10946 0)
(10.3835 -0.165263 0)
(10.416 -0.231993 0)
(10.2916 0.000716939 0)
(10.0256 0.00355286 0)
(9.97172 -0.0505462 0)
(10.0121 -0.0634312 0)
(10.0248 -0.0601504 0)
(10.0353 -0.0523351 0)
(10.0808 -0.0446747 0)
(10.1595 -0.0354476 0)
(10.245 -0.0214988 0)
(10.3098 -0.00511539 0)
(10.3435 0.00686924 0)
(10.3555 0.00785668 0)
(10.3654 -0.00654614 0)
(10.3854 -0.0378621 0)
(10.4214 -0.0830393 0)
(10.4646 -0.137207 0)
(10.5109 -0.194197 0)
(10.5469 -0.251558 0)
(10.1582 0.206557 0)
(10.0955 0.170521 0)
(9.97399 0.0524648 0)
(9.88667 -0.00869773 0)
(9.86724 -0.0556844 0)
(9.90781 -0.100647 0)
(9.99841 -0.128143 0)
(10.1215 -0.128888 0)
(10.249 -0.106015 0)
(10.3499 -0.07139 0)
(10.4057 -0.0390598 0)
(10.4177 -0.0208222 0)
(10.4028 -0.0231424 0)
(10.3797 -0.0469042 0)
(10.3642 -0.0887685 0)
(10.3664 -0.141534 0)
(10.3841 -0.200886 0)
(10.4222 -0.259353 0)
(9.69618 -0.0802404 0)
(9.8295 -0.0316491 0)
(9.97808 -0.0336607 0)
(10.0558 0.000169866 0)
(10.0551 0.000517128 0)
(10.0244 -0.0479108 0)
(9.99681 -0.113213 0)
(9.98271 -0.15674 0)
(9.98507 -0.157876 0)
(10.002 -0.121055 0)
(10.0266 -0.0688373 0)
(10.0516 -0.0289795 0)
(10.0748 -0.0204358 0)
(10.0998 -0.0477055 0)
(10.1274 -0.103704 0)
(10.1599 -0.174629 0)
(10.1942 -0.250995 0)
(10.2331 -0.323039 0)
(9.64428 0.0713702 0)
(9.76726 -0.0109892 0)
(9.84435 -0.0565278 0)
(9.93565 -0.0847733 0)
(10.0225 -0.103857 0)
(10.0875 -0.108544 0)
(10.1082 -0.100917 0)
(10.0817 -0.0865711 0)
(10.0345 -0.0694914 0)
(10.0037 -0.051074 0)
(10.0132 -0.0341828 0)
(10.0639 -0.026375 0)
(10.1389 -0.0361589 0)
(10.216 -0.0662742 0)
(10.2769 -0.114818 0)
(10.3155 -0.174147 0)
(10.3336 -0.24055 0)
(10.3399 -0.308786 0)
(9.98384 -0.00612023 0)
(9.97589 -0.0434876 0)
(9.85708 -0.035899 0)
(9.81113 -0.0274966 0)
(9.78721 -0.052758 0)
(9.76981 -0.0978516 0)
(9.76409 -0.135313 0)
(9.77438 -0.149763 0)
(9.80364 -0.142666 0)
(9.85312 -0.124213 0)
(9.91731 -0.105834 0)
(9.98517 -0.097235 0)
(10.0441 -0.104233 0)
(10.089 -0.127072 0)
(10.1229 -0.164205 0)
(10.1498 -0.212443 0)
(10.1805 -0.270415 0)
(10.2079 -0.335638 0)
(9.87283 -0.0305604 0)
(9.79499 -0.0472446 0)
(9.82495 -0.0539705 0)
(9.93486 -0.0830924 0)
(10.0258 -0.088399 0)
(10.0462 -0.0762571 0)
(10.0142 -0.0720937 0)
(9.976 -0.0858984 0)
(9.96302 -0.109401 0)
(9.98144 -0.128529 0)
(10.0219 -0.135804 0)
(10.0728 -0.134566 0)
(10.1261 -0.135098 0)
(10.1811 -0.148967 0)
(10.2393 -0.180652 0)
(10.2992 -0.230396 0)
(10.3569 -0.291044 0)
(10.4026 -0.355492 0)
(9.80888 -0.0202914 0)
(9.77492 -0.0462617 0)
(9.90235 -0.0732279 0)
(10.0156 -0.096082 0)
(10.038 -0.101462 0)
(10.0195 -0.0963036 0)
(10.0127 -0.0981547 0)
(10.0289 -0.112866 0)
(10.0534 -0.128932 0)
(10.0714 -0.134737 0)
(10.0789 -0.13247 0)
(10.0808 -0.13347 0)
(10.0851 -0.148979 0)
(10.097 -0.183635 0)
(10.1175 -0.233679 0)
(10.1432 -0.291605 0)
(10.1665 -0.348423 0)
(10.1852 -0.397463 0)
(9.89335 -0.0267544 0)
(9.97192 -0.134266 0)
(9.96429 -0.185376 0)
(9.93947 -0.158972 0)
(9.91319 -0.110181 0)
(9.91427 -0.08539 0)
(9.94808 -0.102467 0)
(9.9971 -0.143462 0)
(10.0415 -0.176054 0)
(10.0717 -0.183137 0)
(10.0888 -0.172207 0)
(10.0997 -0.162796 0)
(10.1111 -0.170017 0)
(10.1247 -0.198675 0)
(10.1398 -0.242882 0)
(10.1527 -0.294021 0)
(10.162 -0.343994 0)
(10.165 -0.38834 0)
(9.79488 -0.160973 0)
(9.85803 -0.135988 0)
(9.89969 -0.113797 0)
(9.94225 -0.0910985 0)
(9.96969 -0.0875422 0)
(9.99539 -0.11743 0)
(10.0134 -0.158853 0)
(10.0145 -0.183681 0)
(10.0023 -0.182535 0)
(9.98824 -0.165252 0)
(9.98417 -0.14893 0)
(9.99575 -0.147521 0)
(10.0211 -0.165685 0)
(10.0533 -0.201957 0)
(10.0845 -0.249066 0)
(10.1098 -0.300072 0)
(10.1257 -0.348651 0)
(10.1325 -0.390493 0)
(9.8904 -0.0312919 0)
(9.91345 -0.160231 0)
(9.95153 -0.202469 0)
(9.99039 -0.176098 0)
(10.0175 -0.128825 0)
(10.0338 -0.0939516 0)
(10.0297 -0.0829127 0)
(10.0022 -0.0915668 0)
(9.96246 -0.110256 0)
(9.92416 -0.133983 0)
(9.89874 -0.164647 0)
(9.89298 -0.204884 0)
(9.90604 -0.25332 0)
(9.93145 -0.303752 0)
(9.95866 -0.348042 0)
(9.9801 -0.381933 0)
(9.98872 -0.402888 0)
(9.98462 -0.415426 0)
(10.0554 0.00264665 0)
(9.98093 -0.1956 0)
(9.92606 -0.234543 0)
(9.88217 -0.185243 0)
(9.83314 -0.14588 0)
(9.8242 -0.143608 0)
(9.85338 -0.152244 0)
(9.8962 -0.146693 0)
(9.93579 -0.129586 0)
(9.96443 -0.120385 0)
(9.98097 -0.134357 0)
(9.98656 -0.171851 0)
(9.98272 -0.221476 0)
(9.96967 -0.268358 0)
(9.94929 -0.300975 0)
(9.92297 -0.317479 0)
(9.89428 -0.320247 0)
(9.86533 -0.31952 0)
(10.1472 -0.103133 0)
(10.0959 -0.097133 0)
(10.0074 -0.0316379 0)
(9.94777 -0.0485482 0)
(9.9362 -0.119195 0)
(9.9611 -0.187006 0)
(9.98409 -0.221855 0)
(9.98863 -0.222482 0)
(9.98218 -0.205611 0)
(9.97277 -0.189696 0)
(9.96103 -0.185726 0)
(9.94433 -0.19643 0)
(9.92292 -0.218313 0)
(9.89902 -0.244564 0)
(9.87801 -0.268994 0)
(9.86306 -0.289181 0)
(9.8582 -0.30592 0)
(9.86311 -0.322184 0)
(9.8607 -0.160445 0)
(9.95234 -0.0832468 0)
(10.0647 -0.0106947 0)
(10.1548 -0.0395378 0)
(10.1663 -0.0980199 0)
(10.1414 -0.131894 0)
(10.1199 -0.132521 0)
(10.1003 -0.11377 0)
(10.079 -0.0948594 0)
(10.0646 -0.0871603 0)
(10.0614 -0.0923295 0)
(10.063 -0.108759 0)
(10.0616 -0.134397 0)
(10.0538 -0.168048 0)
(10.0406 -0.208048 0)
(10.0243 -0.252039 0)
(10.0078 -0.297979 0)
(9.9924 -0.342091 0)
(10.1505 -0.182138 0)
(10.1261 -0.241897 0)
(10.1177 -0.148872 0)
(10.0933 -0.11877 0)
(10.0708 -0.152114 0)
(10.0507 -0.19264 0)
(10.0541 -0.20249 0)
(10.0783 -0.184033 0)
(10.1084 -0.160955 0)
(10.1391 -0.150663 0)
(10.1675 -0.154621 0)
(10.1882 -0.165816 0)
(10.1971 -0.17822 0)
(10.1942 -0.19112 0)
(10.1778 -0.207961 0)
(10.1482 -0.231321 0)
(10.1044 -0.260958 0)
(10.0506 -0.294471 0)
(10.4144 -0.140604 0)
(10.2094 -0.11746 0)
(10.1409 -0.0989414 0)
(10.1455 -0.0852162 0)
(10.1115 -0.100453 0)
(10.013 -0.124938 0)
(9.91308 -0.146404 0)
(9.85961 -0.162717 0)
(9.86495 -0.171415 0)
(9.9185 -0.172545 0)
(9.99188 -0.169813 0)
(10.0537 -0.165529 0)
(10.0857 -0.159353 0)
(10.0862 -0.149566 0)
(10.0625 -0.136802 0)
(10.0218 -0.125439 0)
(9.9716 -0.119217 0)
(9.91399 -0.126313 0)
(10.0054 -0.0421998 0)
(10.0665 0.00382755 0)
(10.1414 -0.00703772 0)
(10.1863 0.00375808 0)
(10.1851 0.023765 0)
(10.1764 0.018201 0)
(10.1868 -0.0439439 0)
(10.197 -0.147451 0)
(10.1809 -0.244776 0)
(10.1369 -0.297798 0)
(10.0807 -0.297898 0)
(10.0284 -0.259135 0)
(9.99118 -0.203568 0)
(9.97293 -0.151529 0)
(9.97343 -0.114754 0)
(9.98581 -0.0976537 0)
(10.004 -0.0972499 0)
(10.0179 -0.108316 0)
(9.96232 -0.0282497 0)
(9.95286 -0.118957 0)
(9.91669 -0.174017 0)
(9.93861 -0.14867 0)
(9.97812 -0.112888 0)
(10.0266 -0.107257 0)
(10.0681 -0.115499 0)
(10.0719 -0.113743 0)
(10.0273 -0.100821 0)
(9.95381 -0.091179 0)
(9.88129 -0.094854 0)
(9.83005 -0.109692 0)
(9.80606 -0.127345 0)
(9.80489 -0.141235 0)
(9.81593 -0.147919 0)
(9.8288 -0.148348 0)
(9.83512 -0.143237 0)
(9.83196 -0.134976 0)
(10.0568 0.0220289 0)
(10.237 -0.00348366 0)
(10.1934 -0.0586597 0)
(10.1096 -0.0656597 0)
(10.0614 -0.0624286 0)
(10.0537 -0.0935717 0)
(10.0655 -0.139572 0)
(10.0704 -0.16582 0)
(10.0543 -0.162033 0)
(10.0191 -0.142662 0)
(9.97319 -0.127556 0)
(9.9226 -0.125744 0)
(9.87179 -0.133907 0)
(9.82454 -0.142909 0)
(9.78541 -0.145039 0)
(9.75766 -0.13891 0)
(9.74191 -0.126383 0)
(9.73918 -0.113273 0)
(10.0714 -0.125795 0)
(10.1892 -0.0680369 0)
(10.1474 -0.0103501 0)
(10.1251 -0.0286845 0)
(10.1385 -0.0616803 0)
(10.1254 -0.0794087 0)
(10.0729 -0.0790525 0)
(10.0097 -0.0726698 0)
(9.96805 -0.0727011 0)
(9.95973 -0.0815554 0)
(9.97323 -0.0925785 0)
(9.98644 -0.0980555 0)
(9.98295 -0.0954128 0)
(9.95854 -0.0883863 0)
(9.92186 -0.0830971 0)
(9.88392 -0.0841656 0)
(9.85479 -0.0929382 0)
(9.83827 -0.107538 0)
(9.96443 -0.141697 0)
(9.92846 -0.113348 0)
(9.9632 -0.0729496 0)
(10.0226 -0.058367 0)
(10.0415 -0.0598486 0)
(10.0222 -0.0733626 0)
(9.99822 -0.0892796 0)
(9.98183 -0.0953716 0)
(9.96659 -0.0882983 0)
(9.94748 -0.0744341 0)
(9.92677 -0.0627287 0)
(9.90987 -0.0588007 0)
(9.90118 -0.0632188 0)
(9.90106 -0.0743086 0)
(9.9058 -0.089072 0)
(9.9105 -0.104551 0)
(9.91115 -0.118449 0)
(9.9077 -0.126863 0)
(9.866 -0.146973 0)
(9.9907 -0.0706423 0)
(10.0624 -0.0510175 0)
(10.0804 -0.0713391 0)
(10.0497 -0.0739082 0)
(10.0226 -0.0663458 0)
(10.0238 -0.0685897 0)
(10.0384 -0.0845208 0)
(10.047 -0.105604 0)
(10.0436 -0.122154 0)
(10.0321 -0.12922 0)
(10.0201 -0.126519 0)
(10.0122 -0.115872 0)
(10.0085 -0.0998543 0)
(10.0019 -0.0830614 0)
(9.98509 -0.0707246 0)
(9.95376 -0.0676042 0)
(9.90777 -0.0759227 0)
(9.99676 0.0469088 0)
(10.0645 -0.0910679 0)
(10.108 -0.110155 0)
(10.2048 -0.0689663 0)
(10.3048 -0.0462381 0)
(10.3438 -0.0544303 0)
(10.3153 -0.0662404 0)
(10.2425 -0.0652202 0)
(10.1553 -0.0534225 0)
(10.0772 -0.0409143 0)
(10.0187 -0.0364691 0)
(9.9798 -0.0427724 0)
(9.95486 -0.0561396 0)
(9.93882 -0.069759 0)
(9.92488 -0.0776709 0)
(9.90759 -0.0784427 0)
(9.88109 -0.0729473 0)
(9.84019 -0.0654622 0)
(10.3458 -0.0888301 0)
(10.1737 -0.0158437 0)
(9.86782 -0.0245265 0)
(9.55225 -0.0776425 0)
(9.2656 -0.0941823 0)
(9.03091 -0.0771959 0)
(8.85101 -0.0566113 0)
(8.7016 -0.0476033 0)
(8.56246 -0.0491862 0)
(8.42546 -0.0563189 0)
(8.28451 -0.0657599 0)
(8.13302 -0.0749461 0)
(7.96828 -0.0803295 0)
(7.79772 -0.0775148 0)
(7.63615 -0.0659575 0)
(7.49612 -0.0488119 0)
(7.38427 -0.0307164 0)
(7.2995 -0.0199166 0)
(-0.337216 0.0772279 -3.88124e-20)
(-0.613035 -0.212395 3.85108e-20)
(-0.719129 -0.242722 0)
(-0.535722 -0.527034 0)
(-0.207038 -0.707416 0)
(0.198863 -0.787189 -3.72361e-20)
(0.673368 -0.798281 0)
(1.18935 -0.768919 0)
(1.71135 -0.722014 0)
(2.2113 -0.668647 0)
(2.67572 -0.614433 3.58487e-20)
(3.10481 -0.563079 0)
(3.50329 -0.515089 0)
(3.8747 -0.470198 0)
(4.22082 -0.428805 0)
(4.54247 -0.389842 3.50051e-20)
(4.83896 -0.352944 0)
(5.11032 -0.318351 0)
(5.35525 -0.283407 0)
(5.57202 -0.250366 0)
(5.76049 -0.216539 0)
(5.91537 -0.181095 0)
(6.03847 -0.149476 0)
(6.12247 -0.110331 3.36867e-20)
(6.1678 -0.0785496 -3.3472e-20)
(6.17167 -0.044831 3.32365e-20)
(6.1179 -9.9864e-05 3.2981e-20)
(6.02105 0.0161031 0)
(5.87075 0.0705813 0)
(5.6548 0.102969 -3.21112e-20)
(5.41376 0.099828 -3.17942e-20)
(5.09413 0.23587 0)
(4.69762 0.238395 0)
(4.30991 0.233024 -3.08264e-20)
(3.77598 0.681061 0)
(3.0232 0.843322 0)
(2.35094 0.25889 3.00975e-20)
(1.92226 -0.307499 0)
(1.69787 -0.448468 2.96224e-20)
(1.65799 -0.354584 5.86364e-20)
(1.73101 -0.226541 0)
(1.80273 -0.119287 0)
(1.80939 -0.0290587 0)
(1.75707 0.0329674 0)
(1.68332 0.0569042 0)
(1.61942 0.0568913 5.47591e-20)
(1.57308 0.0561587 5.40224e-20)
(1.54135 0.0662433 5.32492e-20)
(1.50861 0.0880043 0)
(1.46058 0.120027 -5.16358e-20)
(1.38241 0.166246 0)
(1.25564 0.215921 5.00312e-20)
(1.00437 0.259371 4.92812e-20)
(0.666072 0.302198 0)
(0.242685 0.202322 0)
(-0.024504 0.0449561 0)
(0.222498 -0.391865 4.69224e-20)
(0.269113 -0.592644 0)
(0.760942 -0.448886 0)
(0.59845 -1.02185 0)
(0.930014 -0.886047 0)
(-0.312923 1.42828 0)
(-4.1581 1.79963 0)
(-6.24236 1.4518 0)
(-8.34613 1.22321 0)
(-9.90868 0.944556 -4.68753e-20)
(-11.2484 0.740265 0)
(-12.2618 0.556683 0)
(-13.0674 0.418162 5.02157e-20)
(-13.6613 0.302075 5.09077e-20)
(-14.1008 0.211062 0)
(-14.3985 0.134683 -5.15979e-20)
(-14.5819 0.0719179 5.16292e-20)
(-14.6603 0.0181039 0)
(-14.6454 -0.0280274 -5.11422e-20)
(-14.5549 -0.0696846 0)
(-14.393 -0.10747 0)
(-14.1658 -0.141308 4.92716e-20)
(-13.8803 -0.170741 0)
(-13.5435 -0.195457 -4.7485e-20)
(-13.164 -0.2152 0)
(-12.7498 -0.229935 4.54532e-20)
(-12.3095 -0.240027 4.43909e-20)
(-11.8504 -0.24592 4.33178e-20)
(-11.3795 -0.248136 8.44917e-20)
(-10.9026 -0.247344 -8.23701e-20)
(-10.4249 -0.244099 0)
(-9.95034 -0.239014 0)
(-9.48201 -0.232588 0)
(-9.02225 -0.225298 -7.43769e-20)
(-8.57261 -0.217524 -7.25447e-20)
(-8.13411 -0.209577 7.07884e-20)
(-7.70716 -0.201714 0)
(-7.29184 -0.194106 -6.75092e-20)
(-6.88787 -0.186896 -6.59862e-20)
(-6.49474 -0.180155 -6.45391e-20)
(-6.11179 -0.173929 0)
(-5.73819 -0.168238 0)
(-5.37308 -0.163072 0)
(-5.01554 -0.158405 -5.9453e-20)
(-4.66465 -0.154202 0)
(-4.31953 -0.150414 0)
(-3.97934 -0.146976 5.62672e-20)
(-3.64345 -0.143789 0)
(-3.31145 -0.140713 0)
(-2.98336 -0.137553 5.34941e-20)
(-2.65972 -0.134066 0)
(-2.34166 -0.129989 0)
(-2.03093 -0.125081 -5.10547e-20)
(-1.72979 -0.119195 -5.03108e-20)
(-1.44077 -0.112339 0)
(-1.16636 -0.104674 4.89254e-20)
(-0.908593 -0.0965473 0)
(-0.668643 -0.088459 -4.76687e-20)
(-0.44633 -0.0810005 0)
(-0.239954 -0.0746954 -4.65154e-20)
(-0.0460196 -0.0699684 -4.5961e-20)
(0.140525 -0.0672032 0)
(0.325958 -0.066841 0)
(0.516366 -0.0691699 0)
(0.718323 -0.0738789 0)
(0.936963 -0.0797077 0)
(1.1737 -0.0848921 0)
(1.42507 -0.0875661 0)
(1.6827 -0.0862824 -4.11916e-20)
(1.93495 -0.0805084 4.0581e-20)
(2.16953 -0.0707587 0)
(2.37621 -0.0583227 0)
(2.54862 -0.0447727 0)
(2.68466 -0.0315428 0)
(2.78595 -0.0196168 7.59245e-20)
(2.85666 -0.00951904 0)
(2.90226 -0.00193713 -7.4094e-20)
(2.92925 0.00259587 7.31841e-20)
(2.94478 0.00633865 0)
(2.95251 0.0123883 0)
(2.95129 0.0145296 0)
(2.94855 0.003094 -6.93762e-20)
(2.96285 -0.00486008 -6.83589e-20)
(2.98447 0.0177097 0)
(2.96841 0.0304823 -6.62587e-20)
(2.95182 -0.0144959 -6.5186e-20)
(3.00792 -0.0230345 6.40886e-20)
(3.03045 0.0610273 0)
(2.92221 0.0370147 0)
(2.90476 -0.124028 6.07841e-20)
(3.06651 -0.050448 0)
(2.83855 0.230574 0)
(2.03284 0.210248 0)
(1.25948 -0.0451538 0)
(0.814342 -0.190709 -5.60051e-20)
(0.679135 -0.210592 -5.50186e-20)
(0.779946 -0.170142 0)
(1.00434 -0.106635 -5.23189e-20)
(1.24498 -0.0559373 0)
(1.41971 -0.0320841 0)
(1.49634 -0.031058 -4.874e-20)
(1.47917 -0.0307749 0)
(1.3991 -0.0199512 -4.67953e-20)
(1.32346 -0.0383742 0)
(1.33127 -0.106497 0)
(1.46356 -0.154896 -4.37748e-20)
(1.70291 -0.0895693 0)
(1.88359 0.0528815 -4.1597e-20)
(1.82264 0.1006 0)
(1.66291 0.0211155 0)
(1.64663 -0.0788522 0)
(1.88159 -0.13223 3.79993e-20)
(2.31033 -0.118833 0)
(2.73608 -0.0591988 -3.62024e-20)
(2.96541 0.00183605 0)
(2.9134 0.0457701 0)
(2.545 0.097437 0)
(1.78655 0.167851 0)
(0.716259 0.219379 0)
(-0.411306 0.225077 0)
(-1.40406 0.196478 0)
(-2.21109 0.14893 7.13452e-20)
(-2.84297 0.0801102 0)
(-3.37197 -0.0169426 0)
(-0.110288 0.885033 1.16597e-19)
(-0.361016 0.796111 -1.15816e-19)
(-0.0921561 0.187145 0)
(0.290238 -0.768364 7.60869e-20)
(0.659598 -1.37438 0)
(1.05237 -1.64278 3.71068e-20)
(1.46001 -1.69046 -7.38525e-20)
(1.87147 -1.62368 -7.32784e-20)
(2.27447 -1.51249 0)
(2.66193 -1.3922 -7.23324e-20)
(3.03171 -1.27653 -3.57717e-20)
(3.38457 -1.16967 0)
(3.72238 -1.07169 0)
(4.04645 -0.981266 0)
(4.35744 -0.896834 0)
(4.6548 -0.816261 -3.49669e-20)
(4.93803 -0.737588 0)
(5.20603 -0.65913 6.96079e-20)
(5.4569 -0.578516 0)
(5.68911 -0.495043 0)
(5.89928 -0.406737 -6.86578e-20)
(6.08487 -0.312403 0)
(6.24096 -0.212975 6.79511e-20)
(6.36476 -0.105071 -3.366e-20)
(6.44893 0.00691848 3.34458e-20)
(6.49507 0.123138 -3.32099e-20)
(6.50113 0.244039 -3.29462e-20)
(6.4699 0.352501 0)
(6.39231 0.465125 0)
(6.27376 0.565523 3.20485e-20)
(6.12727 0.638062 -3.19937e-20)
(5.92109 0.741703 0)
(5.7304 0.81814 0)
(5.53547 0.889568 3.07136e-20)
(5.19653 1.07245 0)
(4.99026 1.23618 0)
(4.99351 1.40751 -2.98914e-20)
(4.58826 1.43008 0)
(3.74201 0.900791 2.9436e-20)
(3.02287 0.199886 -5.8409e-20)
(2.57777 -0.130504 0)
(2.33094 -0.126992 0)
(2.22519 -0.0209839 -1.13597e-19)
(2.19421 0.0472214 -1.12359e-19)
(2.20186 0.0549775 -1.11047e-19)
(2.23172 0.0374472 5.49601e-20)
(2.27159 0.0281715 -5.394e-20)
(2.31396 0.0508052 -1.59736e-19)
(2.34123 0.117432 1.04926e-19)
(2.34248 0.217014 5.15331e-20)
(2.27359 0.335446 0)
(2.14529 0.464535 -4.99134e-20)
(1.91564 0.637029 4.90638e-20)
(1.76703 0.636728 0)
(1.32756 0.634356 0)
(1.32665 0.347542 0)
(1.03396 0.0232433 -4.68161e-20)
(1.12604 -0.442822 0)
(0.507618 0.231208 9.18674e-20)
(-3.03935 2.55696 0)
(-4.93264 3.53184 9.07048e-20)
(-6.88831 4.09645 0)
(-8.9258 3.79438 -9.07727e-20)
(-9.92983 3.2996 0)
(-11.1032 2.75685 9.42876e-20)
(-11.7825 2.21749 -4.99116e-20)
(-12.4794 1.75172 0)
(-12.9286 1.34537 -1.00541e-19)
(-13.3379 1.01132 -5.01441e-20)
(-13.6038 0.730707 -5.08782e-20)
(-13.8147 0.499337 0)
(-13.9322 0.303325 -5.25642e-20)
(-13.9954 0.136482 -5.16774e-20)
(-13.9893 -0.00977032 0)
(-13.9296 -0.139849 5.12001e-20)
(-13.7982 -0.258541 -1.01953e-19)
(-13.605 -0.366636 0)
(-13.3508 -0.463678 -4.93182e-20)
(-13.0431 -0.547937 0)
(-12.6889 -0.618206 1.42946e-19)
(-12.2963 -0.673705 0)
(-11.8744 -0.71472 -1.36764e-19)
(-11.4306 -0.742174 -4.44228e-20)
(-10.9729 -0.757619 4.35898e-20)
(-10.5072 -0.762718 8.49769e-20)
(-10.0393 -0.759331 -8.27998e-20)
(-9.57321 -0.749152 0)
(-9.11238 -0.733836 0)
(-8.65923 -0.71484 0)
(-8.21544 -0.693438 2.23463e-19)
(-7.78206 -0.670705 7.25867e-20)
(-7.35964 -0.6475 -7.08287e-20)
(-6.94832 -0.624523 0)
(-6.54795 -0.602284 -6.76434e-20)
(-6.15813 -0.581151 6.60222e-20)
(-5.77833 -0.561359 6.45738e-20)
(-5.40787 -0.543032 0)
(-5.04601 -0.526216 0)
(-4.69195 -0.510883 0)
(-4.34488 -0.496961 5.94833e-20)
(-4.00399 -0.484346 0)
(-3.66848 -0.472908 -1.14673e-19)
(-3.33765 -0.462469 -1.68946e-19)
(-3.0109 -0.452765 1.10722e-19)
(-2.68791 -0.443388 0)
(-2.36867 -0.433755 5.35846e-20)
(-2.05369 -0.423117 0)
(-1.74405 -0.41063 1.03771e-19)
(-1.44142 -0.395525 -5.11295e-20)
(-1.14805 -0.37734 -5.03774e-20)
(-0.866334 -0.356221 0)
(-0.598895 -0.332857 -1.46872e-19)
(-0.347812 -0.308479 9.66333e-20)
(-0.114444 -0.284575 4.76914e-20)
(0.101423 -0.262827 0)
(0.301274 -0.244677 4.65017e-20)
(0.488537 -0.231501 1.37818e-19)
(0.667993 -0.224455 0)
(0.845772 -0.224782 8.96567e-20)
(1.02847 -0.232826 8.85251e-20)
(1.22257 -0.247467 8.73597e-20)
(1.43279 -0.265593 0)
(1.66037 -0.282247 0)
(1.90151 -0.291709 0)
(2.1473 -0.289433 -4.11923e-20)
(2.38581 -0.273653 -4.05502e-20)
(2.60519 -0.245843 0)
(2.79629 -0.209866 -7.8841e-20)
(2.95386 -0.17042 -7.78059e-20)
(3.07656 -0.131724 0)
(3.16636 -0.0968987 -7.58893e-20)
(3.2276 -0.0677574 -1.49954e-19)
(3.26616 -0.0448902 7.40657e-20)
(3.2877 -0.0286774 7.31872e-20)
(3.2967 -0.0196504 0)
(3.3002 -0.0155456 0)
(3.30875 -0.0113335 0)
(3.32019 -0.00908411 6.93529e-20)
(3.31735 -0.016562 -6.83761e-20)
(3.31245 -0.0225376 -1.34627e-19)
(3.35163 -0.0114637 6.62354e-20)
(3.39042 -0.0119391 -6.51835e-20)
(3.36177 -0.0389977 -6.40664e-20)
(3.38224 -0.024874 0)
(3.48361 0.0230158 0)
(3.45678 -0.0174907 6.07799e-20)
(3.37372 -0.0498335 0)
(3.44956 0.153736 0)
(3.50376 0.435357 -1.14842e-19)
(3.49033 0.542262 0)
(3.52462 0.410031 -5.57662e-20)
(3.59054 0.144856 5.48656e-20)
(3.60578 -0.0602994 0)
(3.61534 -0.123993 -5.21403e-20)
(3.60482 -0.104749 0)
(3.50569 -0.055538 0)
(3.34799 0.0194781 4.86533e-20)
(3.16035 0.0832873 -9.53328e-20)
(2.92055 0.0760535 4.67245e-20)
(2.74034 0.0218071 0)
(2.71191 -0.023159 0)
(2.68867 -0.0846024 -4.3704e-20)
(2.59509 -0.149571 0)
(2.6013 -0.0921699 -4.15607e-20)
(2.69557 0.0689998 0)
(2.71601 0.129675 0)
(2.68644 -0.0172982 0)
(2.77157 -0.235299 -3.79638e-20)
(3.03398 -0.329115 0)
(3.31635 -0.249141 3.61804e-20)
(3.37313 -0.0584517 0)
(3.02764 0.178829 0)
(2.20915 0.433973 -6.83217e-20)
(1.03419 0.6472 6.76891e-20)
(-0.176732 0.732804 0)
(-1.18694 0.694734 0)
(-2.00461 0.599865 0)
(-2.66981 0.482649 -2.14456e-19)
(-3.22254 0.328415 0)
(-3.7253 0.106938 1.48647e-19)
(0.032405 0.877675 7.75936e-23)
(-0.016437 1.05343 1.54511e-19)
(0.49381 -0.398344 0)
(0.972411 -1.62405 -1.51807e-19)
(1.33012 -2.23039 0)
(1.62194 -2.3979 0)
(1.8971 -2.35178 -4.13427e-22)
(2.17542 -2.23262 7.31368e-20)
(2.45942 -2.10385 7.31455e-20)
(2.74603 -1.9858 7.22348e-20)
(3.03174 -1.88037 0)
(3.31408 -1.78457 0)
(3.59183 -1.69508 -7.16186e-20)
(3.86467 -1.60929 -1.42558e-19)
(4.13262 -1.52506 1.41898e-19)
(4.39578 -1.44025 0)
(4.65386 -1.35285 1.40622e-19)
(4.90641 -1.2609 -6.96162e-20)
(5.15226 -1.1618 0)
(5.3899 -1.05404 1.38725e-19)
(5.61746 -0.935283 6.86705e-20)
(5.8315 -0.802842 -1.37383e-19)
(6.02941 -0.656698 -6.79591e-20)
(6.2059 -0.492924 0)
(6.35627 -0.313031 1.35064e-19)
(6.47474 -0.117499 1.34165e-19)
(6.54985 0.0958282 0)
(6.58133 0.310835 1.32e-19)
(6.56095 0.532971 0)
(6.48707 0.750008 1.29465e-19)
(6.36633 0.931488 6.36522e-20)
(6.18204 1.10419 0)
(5.97957 1.23286 0)
(5.77349 1.31881 0)
(5.53723 1.44364 0)
(5.38126 1.52155 0)
(5.28006 1.55943 0)
(5.09363 1.65873 1.18605e-19)
(4.85073 1.67257 -1.76115e-19)
(4.46975 1.39552 0)
(3.91428 0.87128 0)
(3.43689 0.417304 0)
(3.17202 0.19157 -2.46715e-22)
(3.06946 0.0921389 1.12125e-19)
(3.06076 0.0210146 2.2207e-19)
(3.10373 -0.0262592 -2.19299e-19)
(3.16459 -0.0360419 -1.08398e-19)
(3.22072 -0.00188451 1.06354e-19)
(3.25071 0.100587 4.6174e-22)
(3.21599 0.287015 1.03421e-19)
(3.10371 0.533227 0)
(2.87488 0.800158 9.9811e-20)
(2.53128 0.998706 3.34122e-24)
(2.10565 1.16494 0)
(1.61059 1.18778 0)
(1.20782 0.813824 -9.36571e-20)
(0.691482 0.247728 0)
(-1.50774 1.93583 0)
(-4.05076 4.03006 9.25343e-20)
(-6.36963 5.32546 1.83757e-19)
(-7.75628 5.74854 -8.98993e-20)
(-8.9373 5.70972 0)
(-9.61447 5.1482 9.0459e-20)
(-10.1196 4.48495 0)
(-10.6421 3.74147 1.02691e-19)
(-11.0208 3.0481 9.65424e-20)
(-11.4402 2.42016 -2.0375e-19)
(-11.74 1.87364 -1.05866e-19)
(-12.0226 1.40869 0)
(-12.2076 1.01489 2.10242e-19)
(-12.3507 0.683991 0)
(-12.4194 0.401026 3.15766e-19)
(-12.4411 0.155667 2.10914e-19)
(-12.4008 -0.0647483 2.09883e-19)
(-12.3087 -0.26691 -2.08189e-19)
(-12.1553 -0.455249 3.0815e-19)
(-11.9444 -0.62866 0)
(-11.6742 -0.785014 0)
(-11.3515 -0.920156 -1.96308e-19)
(-10.9825 -1.03168 -2.87996e-19)
(-10.5777 -1.11801 0)
(-10.1458 -1.18015 9.14669e-20)
(-9.69676 -1.21983 0)
(-9.2381 -1.24004 -2.62126e-19)
(-8.77704 -1.24386 7.09332e-22)
(-8.31893 -1.23453 -6.32346e-22)
(-7.86827 -1.21502 1.61871e-19)
(-7.42806 -1.18803 0)
(-7.0003 -1.15596 -1.53594e-19)
(-6.58595 -1.12074 3.49305e-22)
(-6.18522 -1.08396 0)
(-5.79783 -1.04683 0)
(-5.4231 -1.01027 0)
(-5.06018 -0.974991 1.35414e-19)
(-4.70813 -0.941483 0)
(-4.366 -0.910077 0)
(-4.03286 -0.880952 0)
(-3.70778 -0.854162 0)
(-3.38987 -0.829644 0)
(-3.07826 -0.807263 1.19278e-19)
(-2.77211 -0.786845 0)
(-2.4706 -0.768194 1.14815e-19)
(-2.17296 -0.751082 1.12786e-19)
(-1.87851 -0.735172 -1.10848e-19)
(-1.58675 -0.719868 0)
(-1.29749 -0.704247 -1.07215e-19)
(-1.0111 -0.687064 0)
(-0.728584 -0.666945 -1.03872e-19)
(-0.45161 -0.642592 1.02303e-19)
(-0.182931 -0.613013 3.02572e-19)
(0.0750868 -0.578144 0)
(0.319836 -0.538692 2.93893e-19)
(0.549733 -0.496406 9.66712e-20)
(0.764074 -0.453609 0)
(0.963375 -0.413437 1.8823e-19)
(1.14894 -0.379111 1.85898e-19)
(1.32331 -0.353643 -2.75417e-19)
(1.49059 -0.339575 0)
(1.65676 -0.338782 -8.95448e-20)
(1.82924 -0.351827 -8.84157e-20)
(2.01594 -0.376761 -2.61974e-19)
(2.22314 -0.407901 0)
(2.45221 -0.436009 0)
(2.69647 -0.450698 0)
(2.94104 -0.444456 -8.23708e-20)
(3.16723 -0.415543 0)
(3.35913 -0.367693 0)
(3.50835 -0.307686 7.87613e-20)
(3.61416 -0.243046 7.77359e-20)
(3.68059 -0.180552 0)
(3.71353 -0.125188 0)
(3.71918 -0.0797691 1.49866e-19)
(3.70396 -0.045397 0)
(3.67484 -0.0214969 -1.46281e-19)
(3.63813 -0.0061467 -1.44523e-19)
(3.59712 0.00133824 0)
(3.55515 0.000197702 0)
(3.51929 -0.00627059 1.38785e-19)
(3.49094 -0.0115348 -6.64012e-23)
(3.46239 -0.0147017 -5.91183e-23)
(3.44098 -0.0163126 0)
(3.43867 -0.0178588 2.60712e-19)
(3.42699 -0.0273789 0)
(3.40606 -0.0228121 0)
(3.44654 0.0172063 0)
(3.49497 0.0265748 -1.21532e-19)
(3.44951 0.0175085 0)
(3.47114 0.164912 2.34239e-19)
(3.69909 0.440445 1.14836e-19)
(4.00606 0.546232 0)
(4.23755 0.33176 1.11545e-19)
(4.32543 0.000445919 0)
(4.32629 -0.192003 0)
(4.33888 -0.21782 3.12705e-19)
(4.42614 -0.145042 -2.03647e-19)
(4.55709 -0.0143594 0)
(4.60595 0.123919 -1.94624e-19)
(4.5286 0.219494 9.51944e-20)
(4.40076 0.24909 0)
(4.22977 0.195397 0)
(3.98932 0.087619 0)
(3.71774 -0.0130963 2.61963e-19)
(3.39038 -0.0814008 0)
(3.09362 -0.0499029 8.30895e-20)
(2.96619 0.0795513 0)
(2.88668 0.101621 0)
(2.79371 -0.0982231 0)
(2.80452 -0.354882 0)
(2.93859 -0.429373 0)
(3.03809 -0.253293 0)
(2.88426 0.087582 1.41747e-19)
(2.34278 0.495507 0)
(1.43628 0.888306 6.82992e-20)
(0.386159 1.15228 -2.03497e-19)
(-0.530532 1.20556 0)
(-1.3013 1.11302 0)
(-1.98551 0.978799 1.40834e-19)
(-2.59985 0.836728 1.43098e-19)
(-3.16615 0.663856 -1.47011e-19)
(-3.69485 0.416365 -1.48592e-19)
(-0.0143415 0.763772 -2.33157e-19)
(0.388815 -0.0808624 -2.31649e-19)
(0.979332 -1.59462 -1.53096e-19)
(1.39806 -2.44964 -7.60757e-20)
(1.64499 -2.74196 0)
(1.82056 -2.78402 1.49789e-19)
(1.99503 -2.75609 -7.48454e-20)
(2.18148 -2.71099 0)
(2.37182 -2.65091 -7.31276e-20)
(2.55831 -2.57317 0)
(2.73912 -2.48059 1.45696e-19)
(2.91576 -2.37901 0)
(3.09091 -2.27384 7.16765e-20)
(3.26724 -2.16851 1.42709e-19)
(3.44679 -2.06421 -1.42082e-19)
(3.63075 -1.96046 0)
(3.81952 -1.85562 -1.4086e-19)
(4.01296 -1.74719 0)
(4.21035 -1.63234 0)
(4.41079 -1.50822 -1.39011e-19)
(4.61326 -1.37138 0)
(4.81582 -1.21916 -7.55337e-22)
(5.01706 -1.04956 0)
(5.21509 -0.859107 0)
(5.40589 -0.647633 7.98242e-22)
(5.58624 -0.413066 -1.34427e-19)
(5.74929 -0.155144 -1.34274e-19)
(5.88526 0.118138 -1.32248e-19)
(5.98442 0.414345 0)
(6.03452 0.716757 -2.60129e-19)
(6.0305 0.993564 0)
(5.96481 1.25522 -1.27508e-19)
(5.84799 1.45939 0)
(5.69289 1.59793 0)
(5.49633 1.73261 1.22882e-19)
(5.28665 1.75719 0)
(5.10501 1.68794 -1.20064e-19)
(5.02011 1.76556 2.09569e-22)
(4.98035 1.95057 2.34867e-19)
(4.81025 1.91421 -2.32662e-19)
(4.50582 1.55112 0)
(4.18487 1.05956 0)
(3.93559 0.618127 -1.13708e-19)
(3.80686 0.274007 0)
(3.78926 0.0222551 -1.11044e-19)
(3.8454 -0.126669 1.09663e-19)
(3.94416 -0.167113 1.08181e-19)
(4.0279 -0.102473 0)
(4.04986 0.0862795 -1.04979e-19)
(3.97024 0.399084 -1.03224e-19)
(3.73468 0.819846 2.04386e-19)
(3.34619 1.26917 -9.96314e-20)
(2.76989 1.68958 -9.78852e-20)
(2.02835 2.03455 0)
(1.26857 2.02295 0)
(0.380049 1.70343 9.35605e-20)
(-1.56188 2.73971 0)
(-4.13681 4.99103 0)
(-6.14077 6.49973 -1.82088e-19)
(-7.445 7.01439 -1.82832e-19)
(-8.24476 6.98419 0)
(-8.81503 6.55355 0)
(-9.12931 5.83718 0)
(-9.50677 5.07885 0)
(-9.79801 4.26573 -1.97061e-19)
(-10.0849 3.51031 2.0753e-19)
(-10.3222 2.79993 2.04036e-19)
(-10.5051 2.17244 4.18927e-19)
(-10.6427 1.62298 0)
(-10.73 1.15535 3.56195e-21)
(-10.7866 0.758474 0)
(-10.81 0.419169 -2.11906e-19)
(-10.8082 0.120844 2.25858e-21)
(-10.7719 -0.152643 -2.10452e-19)
(-10.695 -0.411818 2.08726e-19)
(-10.563 -0.661358 1.79695e-21)
(-10.3682 -0.898004 0)
(-10.106 -1.1151 2.01964e-19)
(-9.78141 -1.3041 1.96707e-19)
(-9.40286 -1.45944 3.86913e-19)
(-8.9823 -1.57823 0)
(-8.53043 -1.66131 -1.85495e-19)
(-8.05798 -1.71136 0)
(-7.57355 -1.73275 3.51804e-19)
(-7.08523 -1.73008 -1.70903e-19)
(-6.59967 -1.70821 1.66509e-19)
(-6.12309 -1.67164 -1.62197e-19)
(-5.66051 -1.62474 -3.17432e-19)
(-5.21586 -1.57147 1.53917e-19)
(-4.79164 -1.51522 -1.49984e-19)