/*--------------------------------*- C++ -*----------------------------------*\
  =========                 |
  \\      /  F ield         | OpenFOAM: The Open Source CFD Toolbox
   \\    /   O peration     | Website:  https://openfoam.org
    \\  /    A nd           | Version:  6
     \\/     M anipulation  |
\*---------------------------------------------------------------------------*/
FoamFile
{
    version     2.0;
    format      ascii;
    class       volVectorField;
    location    "0.45";
    object      UMean;
}
// * * * * * * * * * * * * * * * * * * * * * * * * * * * * * * * * * * * * * //

dimensions      [0 1 -1 0 0 0 0];

internalField   nonuniform List<vector> 
12225
(
(9.83282 0.0201316 0)
(9.53506 0.0337528 0)
(9.23849 0.0366698 0)
(8.93809 0.0379399 0)
(8.64106 0.0391911 0)
(8.35347 0.0401961 0)
(8.07705 0.0407408 0)
(7.81144 0.0410312 0)
(7.55491 0.0411236 0)
(7.30695 0.0413412 0)
(7.06533 0.041518 0)
(6.83074 0.042101 0)
(6.59861 0.0428475 0)
(6.37158 0.04432 0)
(6.13945 0.0469541 0)
(5.90971 0.0500229 0)
(5.66172 0.0585528 0)
(5.41085 0.0594315 0)
(10.0137 0.0403599 0)
(10.0768 0.0686415 0)
(10.1186 0.0739878 0)
(10.1343 0.0762559 0)
(10.1318 0.0793468 0)
(10.1181 0.0824493 0)
(10.0963 0.0850024 0)
(10.0677 0.0870899 0)
(10.032 0.0890986 0)
(9.99054 0.0911431 0)
(9.94226 0.093579 0)
(9.88926 0.0962598 0)
(9.82891 0.0999658 0)
(9.76436 0.104244 0)
(9.69029 0.111004 0)
(9.61096 0.11889 0)
(9.5194 0.131675 0)
(9.41505 0.144646 0)
(9.99839 0.035937 0)
(10.0302 0.063106 0)
(10.0604 0.0661406 0)
(10.0795 0.0662397 0)
(10.0909 0.0685576 0)
(10.0994 0.0718613 0)
(10.1071 0.0749339 0)
(10.1141 0.0777556 0)
(10.1197 0.0805987 0)
(10.1233 0.0838206 0)
(10.125 0.087531 0)
(10.1241 0.0919858 0)
(10.1216 0.0975032 0)
(10.116 0.104391 0)
(10.1095 0.11376 0)
(10.099 0.1254 0)
(10.0903 0.14169 0)
(10.0769 0.158641 0)
(10.0088 0.0292942 0)
(10.0319 0.0556556 0)
(10.056 0.0603373 0)
(10.0718 0.0611641 0)
(10.0803 0.0641339 0)
(10.0857 0.0683112 0)
(10.0905 0.0723038 0)
(10.0951 0.0758833 0)
(10.0991 0.0794138 0)
(10.102 0.083233 0)
(10.1039 0.0876183 0)
(10.1047 0.0927516 0)
(10.1046 0.0990425 0)
(10.1037 0.106836 0)
(10.1023 0.116892 0)
(10.1015 0.129629 0)
(10.1018 0.145448 0)
(10.1061 0.163744 0)
(10.0028 0.0206404 0)
(10.0209 0.0472456 0)
(10.0422 0.0552577 0)
(10.058 0.0578842 0)
(10.0672 0.0615623 0)
(10.0729 0.0663098 0)
(10.0775 0.0709024 0)
(10.0819 0.0749964 0)
(10.0857 0.0789226 0)
(10.0885 0.0830703 0)
(10.0903 0.0877726 0)
(10.091 0.0932454 0)
(10.0909 0.0998592 0)
(10.0904 0.107946 0)
(10.0895 0.118014 0)
(10.0895 0.130413 0)
(10.0906 0.144967 0)
(10.0952 0.161483 0)
(9.99703 0.0160073 0)
(10.0106 0.041737 0)
(10.0288 0.0522816 0)
(10.0438 0.0563924 0)
(10.0532 0.0602958 0)
(10.0591 0.065044 0)
(10.0637 0.0697935 0)
(10.068 0.07413 0)
(10.0719 0.0782753 0)
(10.075 0.0826492 0)
(10.0771 0.0875757 0)
(10.0784 0.0933371 0)
(10.079 0.100169 0)
(10.0793 0.108438 0)
(10.0796 0.118325 0)
(10.0807 0.130167 0)
(10.0829 0.14342 0)
(10.0876 0.15789 0)
(9.99842 0.0137103 0)
(10.0083 0.0369392 0)
(10.0233 0.0486234 0)
(10.037 0.0536942 0)
(10.0464 0.0575922 0)
(10.0523 0.062145 0)
(10.0569 0.0669679 0)
(10.061 0.0715953 0)
(10.0648 0.0760906 0)
(10.0679 0.0808111 0)
(10.0702 0.0860744 0)
(10.0719 0.0921649 0)
(10.073 0.0992587 0)
(10.074 0.107644 0)
(10.0751 0.117356 0)
(10.077 0.128589 0)
(10.0799 0.140765 0)
(10.0846 0.153721 0)
(10.0023 0.0138501 0)
(10.0099 0.0342618 0)
(10.0222 0.0462937 0)
(10.0346 0.0522197 0)
(10.0437 0.0563209 0)
(10.0498 0.0607583 0)
(10.0544 0.0655915 0)
(10.0585 0.0704137 0)
(10.0623 0.0751629 0)
(10.0656 0.0801162 0)
(10.0682 0.0855659 0)
(10.0703 0.0917957 0)
(10.072 0.0989359 0)
(10.0737 0.107207 0)
(10.0755 0.116547 0)
(10.0781 0.12707 0)
(10.0814 0.138242 0)
(10.0862 0.150037 0)
(9.99991 0.010238 0)
(10.006 0.0290996 0)
(10.0162 0.0415558 0)
(10.0273 0.0486491 0)
(10.0362 0.0535121 0)
(10.0426 0.0582926 0)
(10.0474 0.0634165 0)
(10.0517 0.0686271 0)
(10.0556 0.0738012 0)
(10.0592 0.0791376 0)
(10.0623 0.0848886 0)
(10.065 0.0913318 0)
(10.0674 0.0985607 0)
(10.0699 0.106754 0)
(10.0725 0.115781 0)
(10.0759 0.125746 0)
(10.0799 0.136138 0)
(10.0853 0.147096 0)
(10.0019 0.00532619 0)
(10.0065 0.0227981 0)
(10.015 0.0352324 0)
(10.0246 0.0431102 0)
(10.033 0.0485934 0)
(10.0394 0.0536054 0)
(10.0444 0.0588342 0)
(10.0488 0.0642203 0)
(10.053 0.0696436 0)
(10.057 0.0752218 0)
(10.0606 0.0811513 0)
(10.0639 0.0876723 0)
(10.0671 0.0948629 0)
(10.0703 0.102856 0)
(10.0739 0.111515 0)
(10.078 0.120918 0)
(10.0827 0.130632 0)
(10.0884 0.140814 0)
(10.0081 0.0102103 0)
(10.0114 0.0252105 0)
(10.0183 0.036711 0)
(10.0267 0.0446508 0)
(10.0345 0.05036 0)
(10.0408 0.0553633 0)
(10.0459 0.0604318 0)
(10.0505 0.0656824 0)
(10.0548 0.0710442 0)
(10.059 0.0765903 0)
(10.063 0.0824582 0)
(10.0669 0.0888496 0)
(10.0707 0.0958098 0)
(10.0746 0.10345 0)
(10.0788 0.111605 0)
(10.0836 0.120369 0)
(10.0887 0.12931 0)
(10.095 0.138669 0)
(9.99309 0.00475241 0)
(9.996 0.0181173 0)
(10.0021 0.0290634 0)
(10.0097 0.0372159 0)
(10.0173 0.0433552 0)
(10.0238 0.0486688 0)
(10.0293 0.0539247 0)
(10.0342 0.0593565 0)
(10.0389 0.0649348 0)
(10.0435 0.0707004 0)
(10.0479 0.0767299 0)
(10.0523 0.0831966 0)
(10.0566 0.0901139 0)
(10.0612 0.097598 0)
(10.0659 0.105456 0)
(10.0712 0.113819 0)
(10.0768 0.122233 0)
(10.0833 0.131026 0)
(10.003 0.00784343 0)
(10.0053 0.0196416 0)
(10.0104 0.0297337 0)
(10.017 0.0376723 0)
(10.0238 0.0438935 0)
(10.0298 0.0492634 0)
(10.0352 0.0544584 0)
(10.04 0.0597784 0)
(10.0447 0.06526 0)
(10.0493 0.0709423 0)
(10.0539 0.0768612 0)
(10.0584 0.0831474 0)
(10.063 0.0897931 0)
(10.0678 0.0969001 0)
(10.0728 0.104284 0)
(10.0782 0.112073 0)
(10.084 0.11985 0)
(10.0904 0.127945 0)
(9.99892 0.00381704 0)
(10.0011 0.0144694 0)
(10.0056 0.0237857 0)
(10.0114 0.0314638 0)
(10.0177 0.0377569 0)
(10.0236 0.0432646 0)
(10.0291 0.0485299 0)
(10.0342 0.0538642 0)
(10.0392 0.0593475 0)
(10.0442 0.0650247 0)
(10.0492 0.0708986 0)
(10.0543 0.0770697 0)
(10.0594 0.0835053 0)
(10.0648 0.0903112 0)
(10.0703 0.0972932 0)
(10.0763 0.104611 0)
(10.0824 0.111831 0)
(10.0893 0.119357 0)
(9.99752 0.0047888 0)
(9.99933 0.0143384 0)
(10.0031 0.0227549 0)
(10.0083 0.0299346 0)
(10.0141 0.0360454 0)
(10.0199 0.0414796 0)
(10.0255 0.04664 0)
(10.0308 0.0518136 0)
(10.0361 0.0571056 0)
(10.0414 0.062572 0)
(10.0467 0.0681974 0)
(10.0522 0.0740523 0)
(10.0578 0.0800837 0)
(10.0636 0.0863874 0)
(10.0696 0.0927786 0)
(10.0759 0.099422 0)
(10.0825 0.105919 0)
(10.0894 0.112674 0)
(10.0053 0.00230355 0)
(10.0066 0.010529 0)
(10.0098 0.017821 0)
(10.0144 0.0242376 0)
(10.0197 0.0299199 0)
(10.0253 0.0351278 0)
(10.0309 0.0401271 0)
(10.0365 0.0451234 0)
(10.042 0.0501967 0)
(10.0477 0.0554 0)
(10.0535 0.0607111 0)
(10.0595 0.0661879 0)
(10.0656 0.0717646 0)
(10.0719 0.0775359 0)
(10.0783 0.0833177 0)
(10.085 0.0892949 0)
(10.0919 0.0950735 0)
(10.0991 0.1011 0)
(9.9971 0.0026006 0)
(9.99811 0.00896378 0)
(10.001 0.0148402 0)
(10.0053 0.0202137 0)
(10.0104 0.025152 0)
(10.0159 0.0298084 0)
(10.0217 0.0343412 0)
(10.0276 0.0388861 0)
(10.0336 0.0434981 0)
(10.0398 0.0482243 0)
(10.0461 0.0530377 0)
(10.0526 0.0579814 0)
(10.0593 0.0629771 0)
(10.0661 0.0681063 0)
(10.0731 0.0731901 0)
(10.0803 0.0784093 0)
(10.0876 0.0833987 0)
(10.0952 0.0885898 0)
(9.99955 0.00291666 0)
(10.0006 0.0071008 0)
(10.0033 0.0112002 0)
(10.0075 0.0151349 0)
(10.0126 0.0189381 0)
(10.0183 0.0226935 0)
(10.0243 0.0264615 0)
(10.0305 0.0302914 0)
(10.0368 0.0341867 0)
(10.0433 0.0381735 0)
(10.05 0.0422226 0)
(10.0569 0.0463716 0)
(10.0639 0.0505431 0)
(10.071 0.0548087 0)
(10.0783 0.0590025 0)
(10.0858 0.0632927 0)
(10.0933 0.0673525 0)
(10.101 0.0715824 0)
(10.0013 0.00133662 0)
(10.0026 0.00350913 0)
(10.0055 0.00574149 0)
(10.0099 0.00810549 0)
(10.0152 0.0106611 0)
(10.0212 0.0134127 0)
(10.0275 0.0163142 0)
(10.034 0.0193267 0)
(10.0406 0.0224118 0)
(10.0475 0.025576 0)
(10.0546 0.0287888 0)
(10.0618 0.0320753 0)
(10.0691 0.0353654 0)
(10.0766 0.0387142 0)
(10.0841 0.0419844 0)
(10.0917 0.0453178 0)
(10.0994 0.0484482 0)
(10.1071 0.0517114 0)
(10.0067 -0.00145705 0)
(10.008 -0.00133925 0)
(10.0113 -0.000944013 0)
(10.0161 -5.84582e-05 0)
(10.0219 0.00133458 0)
(10.0283 0.00311521 0)
(10.0349 0.00512879 0)
(10.0418 0.00727977 0)
(10.0488 0.00951886 0)
(10.056 0.0118517 0)
(10.0633 0.0142513 0)
(10.0708 0.0167274 0)
(10.0784 0.0192129 0)
(10.0861 0.0217437 0)
(10.0938 0.0242085 0)
(10.1015 0.02672 0)
(10.1093 0.0290682 0)
(10.1171 0.031521 0)
(10.0039 -0.000810957 0)
(10.0053 -0.00328619 0)
(10.0091 -0.00484775 0)
(10.0147 -0.00540166 0)
(10.0213 -0.0050791 0)
(10.0282 -0.00416855 0)
(10.0352 -0.00294782 0)
(10.0423 -0.00156023 0)
(10.0496 -5.09122e-05 0)
(10.057 0.00159151 0)
(10.0646 0.00334111 0)
(10.0723 0.00518939 0)
(10.0801 0.00706502 0)
(10.0878 0.00898352 0)
(10.0956 0.0108497 0)
(10.1035 0.0127514 0)
(10.1113 0.0145217 0)
(10.1191 0.0163742 0)
(10.0084 -0.000107586 0)
(10.0108 -0.00523246 0)
(10.0157 -0.00867348 0)
(10.0223 -0.0104474 0)
(10.0297 -0.0109408 0)
(10.0371 -0.0107092 0)
(10.0444 -0.0101603 0)
(10.0517 -0.00943896 0)
(10.0593 -0.00855675 0)
(10.067 -0.00749723 0)
(10.0748 -0.00629999 0)
(10.0826 -0.00499378 0)
(10.0905 -0.00365205 0)
(10.0983 -0.00226782 0)
(10.1062 -0.000923629 0)
(10.114 0.000451472 0)
(10.1218 0.00171496 0)
(10.1296 0.00304489 0)
(9.99899 -0.00381533 0)
(10.0025 -0.0108514 0)
(10.009 -0.0156281 0)
(10.0171 -0.0179944 0)
(10.0254 -0.0187335 0)
(10.0333 -0.01877 0)
(10.0408 -0.0185847 0)
(10.0483 -0.0182409 0)
(10.056 -0.0176862 0)
(10.0639 -0.0169109 0)
(10.0719 -0.0159855 0)
(10.0799 -0.0149712 0)
(10.0879 -0.0139425 0)
(10.0959 -0.0128983 0)
(10.1038 -0.0118948 0)
(10.1117 -0.0108759 0)
(10.1196 -0.00994296 0)
(10.1274 -0.00896858 0)
(10.0022 -0.00565273 0)
(10.0067 -0.0147919 0)
(10.0149 -0.0206329 0)
(10.0246 -0.0232443 0)
(10.0339 -0.0240951 0)
(10.0421 -0.0244226 0)
(10.0497 -0.0246432 0)
(10.0574 -0.0247036 0)
(10.0653 -0.024522 0)
(10.0734 -0.0241133 0)
(10.0816 -0.0235631 0)
(10.0897 -0.0229302 0)
(10.0978 -0.0222728 0)
(10.1059 -0.0215873 0)
(10.1139 -0.0209226 0)
(10.1218 -0.0202372 0)
(10.1297 -0.0196191 0)
(10.1375 -0.0189656 0)
(9.99787 -0.00733473 0)
(10.0038 -0.0190991 0)
(10.0141 -0.0255081 0)
(10.0255 -0.0278991 0)
(10.0354 -0.0288136 0)
(10.0438 -0.0295733 0)
(10.0516 -0.0302832 0)
(10.0595 -0.0307157 0)
(10.0677 -0.030802 0)
(10.076 -0.0306294 0)
(10.0843 -0.0303246 0)
(10.0925 -0.0299541 0)
(10.1007 -0.029563 0)
(10.1088 -0.0291438 0)
(10.1169 -0.0287368 0)
(10.1249 -0.0283126 0)
(10.1328 -0.0279443 0)
(10.1407 -0.0275478 0)
(10.0017 -0.0117147 0)
(10.0101 -0.026146 0)
(10.0232 -0.0319468 0)
(10.036 -0.0333217 0)
(10.0461 -0.0340265 0)
(10.0544 -0.0350978 0)
(10.0623 -0.0361833 0)
(10.0703 -0.0369063 0)
(10.0787 -0.0372294 0)
(10.0871 -0.0372878 0)
(10.0955 -0.0372123 0)
(10.1037 -0.0370666 0)
(10.1118 -0.0368801 0)
(10.1199 -0.0366576 0)
(10.1279 -0.0364242 0)
(10.1358 -0.036178 0)
(10.1437 -0.0359577 0)
(10.1514 -0.0357339 0)
(9.99959 -0.0153131 0)
(10.0122 -0.0329835 0)
(10.0286 -0.0374182 0)
(10.0425 -0.037425 0)
(10.0525 -0.0377738 0)
(10.0607 -0.0389437 0)
(10.0687 -0.0401692 0)
(10.0771 -0.0410271 0)
(10.0857 -0.0415457 0)
(10.0944 -0.0418868 0)
(10.1029 -0.042162 0)
(10.1113 -0.0423999 0)
(10.1196 -0.0426079 0)
(10.1279 -0.0427729 0)
(10.1361 -0.0429235 0)
(10.1442 -0.0430458 0)
(10.1522 -0.0432053 0)
(10.1601 -0.04333 0)
(9.99892 -0.0186618 0)
(10.0186 -0.0392624 0)
(10.0398 -0.0425772 0)
(10.0555 -0.0417052 0)
(10.0665 -0.0416057 0)
(10.0758 -0.0423206 0)
(10.0853 -0.0430161 0)
(10.0953 -0.0433821 0)
(10.1055 -0.043501 0)
(10.1155 -0.0435421 0)
(10.1253 -0.0435731 0)
(10.1349 -0.0436299 0)
(10.1443 -0.043677 0)
(10.1535 -0.0437484 0)
(10.1626 -0.043799 0)
(10.1713 -0.0439062 0)
(10.1801 -0.0440031 0)
(10.1883 -0.0442378 0)
(10.0167 -0.0292153 0)
(10.0597 -0.0511311 0)
(10.095 -0.0557775 0)
(10.1173 -0.0567807 0)
(10.1306 -0.0580224 0)
(10.1393 -0.0594327 0)
(10.1456 -0.0604911 0)
(10.1501 -0.0611115 0)
(10.1528 -0.061435 0)
(10.1538 -0.0616263 0)
(10.153 -0.0617382 0)
(10.1511 -0.0618171 0)
(10.1479 -0.0618291 0)
(10.1439 -0.0618295 0)
(10.139 -0.0617674 0)
(10.1338 -0.0617366 0)
(10.1274 -0.0616674 0)
(10.1214 -0.0616997 0)
(9.90554 -0.0116335 0)
(9.74125 -0.0225497 0)
(9.57835 -0.0255227 0)
(9.4121 -0.0267974 0)
(9.24703 -0.0279391 0)
(9.08759 -0.0289557 0)
(8.93551 -0.0296947 0)
(8.79077 -0.0301548 0)
(8.65269 -0.0304165 0)
(8.52085 -0.0305547 0)
(8.39479 -0.0306111 0)
(8.27457 -0.0306034 0)
(8.15964 -0.0305469 0)
(8.05035 -0.0304437 0)
(7.94562 -0.0303285 0)
(7.84646 -0.030172 0)
(7.75068 -0.0300649 0)
(7.66104 -0.0298504 0)
(-0.10332 0.0323486 -2.8583e-22)
(-0.207788 -0.045701 2.8964e-22)
(-0.253286 -0.113025 0)
(-0.245918 -0.1838 0)
(-0.148734 -0.253159 0)
(0.0125398 -0.299965 -2.91667e-22)
(0.210696 -0.322002 0)
(0.427088 -0.325519 0)
(0.649653 -0.315496 0)
(0.868579 -0.293475 0)
(1.07446 -0.2618 3.85722e-22)
(1.26043 -0.226754 0)
(1.4223 -0.192706 0)
(1.55567 -0.159093 0)
(1.65893 -0.125037 0)
(1.73362 -0.0926701 6.14344e-22)
(1.78146 -0.0635729 0)
(1.80385 -0.0374069 0)
(1.80257 -0.0130157 0)
(1.77883 0.0105082 0)
(1.73366 0.0338281 0)
(1.66189 0.0583511 0)
(1.56567 0.0773245 0)
(1.44866 0.088796 6.45602e-22)
(1.31387 0.0977234 -6.29023e-22)
(1.16265 0.0986485 6.12542e-22)
(0.998629 0.0913756 5.98104e-22)
(0.826803 0.0826073 0)
(0.649887 0.0726302 0)
(0.473554 0.0739064 -5.7937e-22)
(0.288339 0.0912288 -5.83071e-22)
(0.105655 0.0891467 0)
(-0.0777989 0.0727652 0)
(-0.25031 0.0594498 -6.27265e-22)
(-0.412068 0.0502559 0)
(-0.571468 0.0564418 0)
(-0.733152 0.0535302 7.00113e-22)
(-0.884952 0.0435871 0)
(-1.0323 0.0364152 7.57666e-22)
(-1.17963 0.0434625 1.57948e-21)
(-1.33316 0.0573347 0)
(-1.49003 0.060496 0)
(-1.63975 0.0433201 0)
(-1.76845 0.0236641 0)
(-1.87937 0.0173828 0)
(-1.96811 0.00944118 2.00582e-21)
(-2.05553 -0.00195479 2.06575e-21)
(-2.12415 -0.0123785 2.11899e-21)
(-2.18917 -0.0123653 0)
(-2.26947 0.00139474 -2.19621e-21)
(-2.35528 0.00269423 0)
(-2.42619 -0.00514455 2.24673e-21)
(-2.48616 -0.013173 2.26141e-21)
(-2.54013 -0.00955199 0)
(-2.61312 -0.00738973 0)
(-2.69103 0.00223783 0)
(-2.78122 0.00244632 2.25179e-21)
(-2.86279 -0.0084231 0)
(-2.92524 -0.0176201 0)
(-2.97866 -0.0290237 0)
(-3.02822 -0.0241373 0)
(-3.08361 -0.0156077 0)
(-3.15603 -0.00155898 0)
(-3.23774 0.00287996 0)
(-3.30958 0.00189965 0)
(-3.38174 0.00428094 -2.21598e-21)
(-3.44587 0.00144319 0)
(-3.49913 -0.00206165 0)
(-3.5432 -0.00825577 2.24395e-21)
(-3.58394 -0.0120349 2.24593e-21)
(-3.61888 -0.018389 0)
(-3.64716 -0.0135606 -2.23009e-21)
(-3.69274 -0.000602042 2.21272e-21)
(-3.74331 0.00597813 0)
(-3.79933 0.0085166 -2.17451e-21)
(-3.86378 0.00699957 0)
(-3.92454 0.00164099 0)
(-3.9901 0.00939679 2.10723e-21)
(-4.06595 0.0140834 0)
(-4.14473 0.00510385 -2.04442e-21)
(-4.19669 -0.0020841 0)
(-4.25001 -0.0123633 1.95423e-21)
(-4.2788 -0.0125244 1.89832e-21)
(-4.32348 -0.0103371 1.83617e-21)
(-4.32349 -0.027502 3.53885e-21)
(-4.31109 -0.0317093 -3.39514e-21)
(-4.28586 -0.0250426 0)
(-4.27474 -0.0112138 0)
(-4.28871 -0.00924572 0)
(-4.28531 -0.0118509 -2.75536e-21)
(-4.29692 -0.00252983 -2.61294e-21)
(-4.31764 -0.00336763 2.48544e-21)
(-4.30966 -0.0087006 0)
(-4.31504 -0.0072147 -2.27761e-21)
(-4.30999 -0.0186534 -2.20101e-21)
(-4.26701 -0.0325597 -2.13791e-21)
(-4.19961 -0.0425354 0)
(-4.11742 -0.0460631 0)
(-4.03211 -0.0475064 0)
(-3.95284 -0.0428395 -1.72243e-21)
(-3.87093 -0.0449424 0)
(-3.79043 -0.038399 0)
(-3.74865 -0.0321245 1.0613e-21)
(-3.69825 -0.0322223 0)
(-3.63946 -0.0392251 0)
(-3.56016 -0.0304172 3.49194e-22)
(-3.5573 -0.017609 0)
(-3.54412 -0.0265847 0)
(-3.50045 -0.0331544 1.56405e-22)
(-3.4482 -0.0369962 2.76272e-22)
(-3.37526 -0.042347 0)
(-3.28596 -0.0461136 -5.17783e-22)
(-3.18178 -0.0496823 0)
(-3.06046 -0.0541783 8.08094e-22)
(-2.92586 -0.0569036 0)
(-2.7804 -0.0599514 1.15643e-21)
(-2.62075 -0.0633878 1.34924e-21)
(-2.45119 -0.0660084 0)
(-2.27372 -0.0675458 0)
(-2.09227 -0.0690232 0)
(-1.91249 -0.066591 0)
(-1.72564 -0.0692584 0)
(-1.53885 -0.0583576 0)
(-1.40471 -0.0421211 0)
(-1.27563 -0.0382428 2.92283e-21)
(-1.14946 -0.0350481 -3.04487e-21)
(-1.02911 -0.0380635 0)
(-0.901113 -0.0441163 0)
(-0.768405 -0.0451387 0)
(-0.634394 -0.0409832 0)
(-0.513318 -0.0376425 -6.65105e-21)
(-0.406565 -0.0362787 0)
(-0.284496 -0.0358622 6.79306e-21)
(-0.215898 -0.0185139 -6.84431e-21)
(-0.204172 -0.00765843 0)
(-0.180769 -0.0112397 0)
(-0.142522 -0.00815729 0)
(-0.142993 -0.00471651 6.54116e-21)
(-0.113045 -0.0127811 6.41432e-21)
(-0.0465878 -0.0182522 0)
(0.0319426 -0.0196411 6.25872e-21)
(0.117557 -0.0222563 6.25384e-21)
(0.22319 -0.0286535 -6.29544e-21)
(0.334403 -0.0313902 0)
(0.433661 -0.0306356 0)
(0.532201 -0.0313048 -6.58268e-21)
(0.637988 -0.0327455 0)
(0.75205 -0.0338352 0)
(0.86989 -0.0343957 0)
(0.99095 -0.0346009 0)
(1.11193 -0.0333586 7.32746e-21)
(1.23309 -0.0315356 7.47487e-21)
(1.34885 -0.0279188 0)
(1.46473 -0.0273347 7.70843e-21)
(1.57507 -0.0260334 0)
(1.65801 -0.0200285 0)
(1.7148 -0.0152818 7.76993e-21)
(1.76632 -0.0130114 0)
(1.82114 -0.011105 7.566e-21)
(1.87758 -0.00857905 0)
(1.92958 -0.00522196 0)
(1.97042 -0.00157196 7.1786e-21)
(1.99647 0.000652646 0)
(2.01595 0.000100651 6.95019e-21)
(2.04213 -0.00185738 0)
(2.07175 -0.00340631 0)
(2.1009 -0.00504439 0)
(2.12891 -0.00686535 -6.71317e-21)
(2.15602 -0.00698007 0)
(2.17611 -0.00540257 6.68071e-21)
(2.18481 -0.0027702 0)
(2.1759 -0.000200513 0)
(2.15741 0.00241228 0)
(2.12636 0.00358623 0)
(2.10212 0.0071394 0)
(2.05322 0.00990347 0)
(2.01415 0.017245 0)
(1.9111 0.015122 -1.2667e-20)
(1.88624 0.0202801 0)
(1.71077 0.00829624 0)
(-0.0343344 0.318954 9.08269e-22)
(-0.0431815 0.204851 -9.19861e-22)
(-0.000653482 0.0459529 0)
(0.14476 -0.162499 6.68809e-22)
(0.350224 -0.378373 0)
(0.575198 -0.555133 2.9019e-22)
(0.79989 -0.667925 -7.44284e-22)
(1.0186 -0.719826 -7.90428e-22)
(1.22461 -0.719855 0)
(1.41191 -0.681848 -9.32333e-22)
(1.57516 -0.619674 -3.84402e-22)
(1.71202 -0.543844 0)
(1.82488 -0.456428 0)
(1.9092 -0.362708 0)
(1.96416 -0.273837 0)
(1.99933 -0.192964 -6.12758e-22)
(2.01758 -0.118114 0)
(2.01566 -0.0470523 1.51106e-21)
(1.99216 0.0209513 0)
(1.94822 0.0855914 0)
(1.88473 0.146665 -1.52219e-21)
(1.79698 0.212997 0)
(1.68445 0.278102 1.47699e-21)
(1.55586 0.334786 -6.43082e-22)
(1.4167 0.375948 6.26306e-22)
(1.25924 0.406993 -6.09645e-22)
(1.07841 0.440851 -5.95024e-22)
(0.883389 0.465246 0)
(0.675941 0.476947 0)
(0.464137 0.480344 5.76108e-22)
(0.248366 0.467274 -7.42404e-22)
(0.0439421 0.431394 0)
(-0.158105 0.418172 0)
(-0.364374 0.409933 6.24407e-22)
(-0.560695 0.384308 0)
(-0.750324 0.358899 0)
(-0.936207 0.336158 -6.97287e-22)
(-1.10513 0.317274 0)
(-1.27826 0.314198 9.445e-22)
(-1.44519 0.31516 -1.57405e-21)
(-1.60106 0.31553 0)
(-1.7453 0.299202 0)
(-1.88616 0.278043 -3.96459e-21)
(-2.01443 0.252874 -4.10755e-21)
(-2.12273 0.202528 -4.2458e-21)
(-2.23389 0.157977 2.37556e-21)
(-2.33957 0.149757 -2.06068e-21)
(-2.44251 0.15379 -6.71805e-21)
(-2.52886 0.143868 4.69391e-21)
(-2.60459 0.134819 2.19147e-21)
(-2.67937 0.12475 0)
(-2.75423 0.122629 -2.24229e-21)
(-2.84694 0.115302 2.62864e-21)
(-2.93852 0.116152 0)
(-3.04809 0.138218 0)
(-3.16152 0.144421 0)
(-3.27046 0.140494 -2.24721e-21)
(-3.37444 0.139474 0)
(-3.46399 0.118265 4.80406e-21)
(-3.56216 0.0932908 0)
(-3.68344 0.109006 4.76475e-21)
(-3.77138 0.119819 0)
(-3.84036 0.120744 -4.75465e-21)
(-3.89971 0.110504 0)
(-3.94448 0.0907201 4.76889e-21)
(-3.98067 0.0703245 -2.56961e-21)
(-4.00275 0.050651 0)
(-4.01802 0.0353662 -4.79996e-21)
(-4.02942 0.0253516 -2.24045e-21)
(-4.04993 0.0259902 -2.24259e-21)
(-4.08033 0.0349973 0)
(-4.11303 0.0453786 -2.50764e-21)
(-4.15346 0.0526581 -2.20997e-21)
(-4.19654 0.0584166 0)
(-4.25133 0.0725792 2.17185e-21)
(-4.30595 0.0873446 -4.58779e-21)
(-4.35895 0.0913906 0)
(-4.42821 0.0958842 -2.10487e-21)
(-4.4866 0.0878956 0)
(-4.52522 0.072972 6.3879e-21)
(-4.54589 0.0529355 0)
(-4.5924 0.0499906 -6.09439e-21)
(-4.60802 0.0349452 -1.89639e-21)
(-4.61291 0.00346737 2.05229e-21)
(-4.59734 -0.0303425 3.95768e-21)
(-4.60875 -0.0310658 -3.80852e-21)
(-4.59959 -0.0329158 0)
(-4.59431 -0.029362 0)
(-4.61472 -0.00691639 0)
(-4.63159 0.00365501 8.73027e-21)
(-4.62139 -0.00931127 2.61092e-21)
(-4.60941 -0.0198727 -2.48334e-21)
(-4.59079 -0.0299634 0)
(-4.56279 -0.055092 -2.78233e-21)
(-4.50834 -0.09209 2.19927e-21)
(-4.426 -0.126281 2.13614e-21)
(-4.32851 -0.151006 0)
(-4.22105 -0.16118 0)
(-4.11495 -0.159346 0)
(-4.00404 -0.153102 1.72203e-21)
(-3.91666 -0.126939 0)
(-3.84385 -0.101515 -2.98945e-21)
(-3.79387 -0.0914898 -3.55942e-21)
(-3.73121 -0.0936298 2.00463e-21)
(-3.70816 -0.0733766 0)
(-3.69172 -0.0518697 7.43403e-22)
(-3.6872 -0.0529136 0)
(-3.6419 -0.0738148 3.92013e-22)
(-3.57068 -0.0958924 -2.68704e-22)
(-3.48713 -0.114897 -1.26568e-22)
(-3.38328 -0.135005 0)
(-3.25514 -0.157161 1.20497e-21)
(-3.10959 -0.175594 -9.87683e-22)
(-2.95205 -0.190033 -8.07202e-22)
(-2.78533 -0.201893 0)
(-2.60838 -0.212692 -1.15525e-21)
(-2.42178 -0.221295 -3.80634e-21)
(-2.23037 -0.227045 0)
(-2.03586 -0.22914 -3.32156e-21)
(-1.84267 -0.226777 -3.76267e-21)
(-1.64932 -0.223844 -4.19524e-21)
(-1.48576 -0.207237 0)
(-1.32424 -0.184657 0)
(-1.16544 -0.171342 0)
(-1.0092 -0.1626 2.72379e-21)
(-0.861808 -0.156022 3.04231e-21)
(-0.711803 -0.159742 0)
(-0.560262 -0.165456 6.21901e-21)
(-0.418984 -0.160729 6.32028e-21)
(-0.277174 -0.149898 0)
(-0.139427 -0.137573 6.64579e-21)
(-0.0213419 -0.123088 1.30898e-20)
(0.0422507 -0.0899056 -6.78622e-21)
(0.0670928 -0.0594575 -6.40546e-21)
(0.113315 -0.0550989 0)
(0.161069 -0.0506285 0)
(0.210819 -0.0485267 0)
(0.272669 -0.0591047 -6.53568e-21)
(0.364742 -0.0763648 5.98754e-21)
(0.465987 -0.088993 1.22375e-20)
(0.572015 -0.0986295 -6.25182e-21)
(0.677727 -0.105812 5.93429e-21)
(0.791402 -0.114015 6.28825e-21)
(0.905191 -0.117051 0)
(1.01817 -0.117212 0)
(1.14219 -0.120338 -6.28443e-21)
(1.27452 -0.12411 0)
(1.41306 -0.126382 0)
(1.55124 -0.126559 1.37376e-20)
(1.69012 -0.126316 0)
(1.82697 -0.124708 7.08604e-21)
(1.96231 -0.120146 -7.46694e-21)
(2.09012 -0.112316 0)
(2.21132 -0.105368 7.49008e-21)
(2.31252 -0.0937013 0)
(2.39443 -0.0794667 0)
(2.46809 -0.0717003 -7.76228e-21)
(2.54294 -0.0697632 1.51114e-20)
(2.61738 -0.068214 -7.55854e-21)
(2.68889 -0.0629821 0)
(2.75205 -0.0539246 0)
(2.80346 -0.0433704 6.97561e-21)
(2.84455 -0.0354919 0)
(2.88332 -0.0333382 6.75443e-21)
(2.92385 -0.0350435 0)
(2.95929 -0.036926 0)
(2.99584 -0.0364246 0)
(3.03236 -0.0343999 6.70666e-21)
(3.06318 -0.0305853 0)
(3.08377 -0.0247028 -6.67431e-21)
(3.09029 -0.0168162 0)
(3.08201 -0.00881599 0)
(3.07222 -0.00197632 1.30044e-20)
(3.0517 0.00190491 -1.28885e-20)
(3.03238 0.00802327 0)
(2.98528 0.0149984 0)
(2.94496 0.028435 0)
(2.86451 0.0316506 3.75774e-20)
(2.85964 0.0412406 0)
(2.74441 0.0360454 -2.47886e-20)
(0.0281674 0.319211 3.43698e-23)
(0.115768 0.147387 1.29453e-21)
(0.281736 -0.183917 0)
(0.518658 -0.547871 -1.41289e-21)
(0.776867 -0.857453 0)
(1.01609 -1.06432 0)
(1.21747 -1.15529 -2.24332e-22)
(1.38627 -1.15505 7.88005e-22)
(1.52286 -1.08775 1.14656e-21)
(1.63109 -0.976791 9.30497e-22)
(1.71037 -0.842026 0)
(1.76319 -0.697191 0)
(1.79365 -0.553238 -1.51218e-21)
(1.80697 -0.417001 -3.17164e-21)
(1.80701 -0.290397 3.29523e-21)
(1.79616 -0.175831 0)
(1.77488 -0.0710155 3.46223e-21)
(1.73722 0.0288137 -1.5108e-21)
(1.68446 0.124858 0)
(1.61424 0.221695 3.51928e-21)
(1.52341 0.324258 1.52119e-21)
(1.41963 0.424189 -3.45386e-21)
(1.30428 0.513357 -1.47503e-21)
(1.1809 0.58093 0)
(1.03784 0.647418 3.26828e-21)
(0.87952 0.715229 3.20326e-21)
(0.714406 0.768808 0)
(0.542445 0.807704 3.1003e-21)
(0.363357 0.830775 0)
(0.181597 0.837677 3.06432e-21)
(-0.00598215 0.835279 1.31764e-21)
(-0.207177 0.828109 0)
(-0.405586 0.806083 0)
(-0.604098 0.777967 0)
(-0.791927 0.743505 0)
(-0.96979 0.708441 0)
(-1.15141 0.681885 0)
(-1.32177 0.649909 3.7249e-21)
(-1.4831 0.614437 -5.55846e-21)
(-1.63519 0.587725 0)
(-1.77408 0.564176 0)
(-1.90516 0.535612 0)
(-2.03224 0.501176 -4.92448e-22)
(-2.15054 0.451431 4.10347e-21)
(-2.27309 0.400637 8.98354e-21)
(-2.40346 0.369435 -9.25358e-21)
(-2.5242 0.34371 -5.00946e-21)
(-2.62386 0.307385 4.60177e-21)
(-2.72189 0.27908 5.23722e-22)
(-2.8126 0.264489 5.28959e-21)
(-2.91821 0.268101 0)
(-3.016 0.269818 5.38136e-21)
(-3.13667 0.283862 5.1674e-22)
(-3.26872 0.315383 0)
(-3.3964 0.342676 0)
(-3.52184 0.342059 -5.38051e-21)
(-3.63164 0.323167 0)
(-3.74335 0.298507 0)
(-3.85155 0.275563 5.7483e-21)
(-3.95482 0.254544 1.04928e-20)
(-4.0367 0.239591 -4.76248e-21)
(-4.09001 0.219279 0)
(-4.12196 0.190646 4.75417e-21)
(-4.13896 0.158117 0)
(-4.14946 0.129229 5.70517e-21)
(-4.1585 0.106373 4.7828e-21)
(-4.16747 0.0849788 -1.04836e-20)
(-4.17864 0.0686125 -5.66179e-21)
(-4.19727 0.0680554 0)
(-4.22552 0.0762109 1.03722e-20)
(-4.25599 0.0846128 0)
(-4.29128 0.0947771 1.49786e-20)
(-4.33343 0.108163 1.01742e-20)
(-4.37052 0.118951 1.01057e-20)
(-4.41022 0.133207 -1.00311e-20)
(-4.44388 0.14783 1.45326e-20)
(-4.48035 0.157818 0)
(-4.5213 0.162259 0)
(-4.54419 0.144955 -9.56443e-21)
(-4.55173 0.113531 -1.37309e-20)
(-4.55915 0.0868947 0)
(-4.5662 0.0656265 4.14473e-21)
(-4.55042 0.0386738 0)
(-4.5398 0.00787332 -1.22715e-20)
(-4.54361 -0.0129794 5.93476e-22)
(-4.54721 -0.0190273 -5.94899e-22)
(-4.54048 -0.0204122 7.50826e-21)
(-4.54745 -0.00539003 0)
(-4.53886 0.0021462 -6.92087e-21)
(-4.51622 -0.0082798 6.62531e-22)
(-4.48701 -0.0205584 0)
(-4.46126 -0.0329517 0)
(-4.42388 -0.0586838 0)
(-4.37005 -0.103035 5.06273e-21)
(-4.29655 -0.155972 0)
(-4.20886 -0.202276 0)
(-4.11088 -0.233234 0)
(-4.01515 -0.241258 0)
(-3.91834 -0.23679 0)
(-3.82877 -0.21818 4.4137e-21)
(-3.76015 -0.1777 0)
(-3.69016 -0.149056 2.99435e-21)
(-3.63119 -0.136692 2.50252e-21)
(-3.58654 -0.117616 -2.01009e-21)
(-3.57103 -0.0814893 0)
(-3.54827 -0.0651171 -1.0979e-21)
(-3.50809 -0.0844873 0)
(-3.43356 -0.122199 -3.9383e-22)
(-3.34876 -0.154533 1.13905e-22)
(-3.24115 -0.190623 6.50552e-22)
(-3.11441 -0.229801 0)
(-2.96824 -0.266377 -1.09218e-21)
(-2.8089 -0.295998 -8.27775e-23)
(-2.63925 -0.319742 0)
(-2.46188 -0.339104 -2.54011e-21)
(-2.27678 -0.354696 -3.35404e-21)
(-2.0879 -0.365757 6.66893e-21)
(-1.898 -0.371913 0)
(-1.70789 -0.372958 3.31651e-21)
(-1.52166 -0.368209 3.75764e-21)
(-1.35194 -0.352353 1.20106e-20)
(-1.19107 -0.327893 0)
(-1.01859 -0.305675 0)
(-0.845936 -0.288288 0)
(-0.682041 -0.272767 5.05063e-21)
(-0.526798 -0.261429 0)
(-0.37214 -0.262909 0)
(-0.22623 -0.264112 -6.21454e-21)
(-0.0950579 -0.252184 -6.31602e-21)
(0.0357327 -0.231679 0)
(0.156246 -0.203997 0)
(0.227767 -0.158955 -1.30803e-20)
(0.259566 -0.109542 0)
(0.301023 -0.0849828 1.32345e-20)
(0.37167 -0.0805678 1.24806e-20)
(0.43581 -0.0778919 0)
(0.50963 -0.0859309 0)
(0.603249 -0.106689 -1.19465e-20)
(0.711416 -0.128838 -6.09694e-22)
(0.815334 -0.143999 -5.61128e-22)
(0.923794 -0.155287 0)
(1.03201 -0.163634 -2.38528e-20)
(1.14404 -0.172018 0)
(1.25298 -0.175542 0)
(1.37036 -0.178383 0)
(1.50091 -0.18475 1.28506e-20)
(1.63685 -0.190949 0)
(1.77664 -0.194844 -2.59957e-20)
(1.91628 -0.196173 -1.37284e-20)
(2.05729 -0.196412 0)
(2.19689 -0.19338 -1.43957e-20)
(2.33403 -0.184628 0)
(2.46306 -0.170505 0)
(2.58076 -0.154366 -4.48707e-20)
(2.67824 -0.132872 2.99403e-20)
(2.76787 -0.112668 0)
(2.85802 -0.101969 2.98032e-20)
(2.94824 -0.0973354 -1.51011e-20)
(3.03227 -0.0926214 0)
(3.10578 -0.0842603 0)
(3.16607 -0.0725608 0)
(3.21496 -0.0604322 -4.18068e-20)
(3.26082 -0.0514367 0)
(3.31034 -0.0482721 -1.36886e-20)
(3.36118 -0.0480943 0)
(3.40717 -0.0471096 0)
(3.4482 -0.044303 0)
(3.4832 -0.0394376 0)
(3.51159 -0.0300188 0)
(3.53087 -0.0166769 0)
(3.53769 -0.00213493 -2.58358e-20)
(3.53138 0.0102161 0)
(3.52192 0.0194653 -1.29975e-20)
(3.50253 0.0268216 3.816e-20)
(3.47916 0.0374263 0)
(3.433 0.0519374 0)
(3.38446 0.0660414 -2.45309e-20)
(3.3115 0.0712263 -2.49103e-20)
(3.28697 0.0771898 2.42335e-20)
(3.20724 0.0903272 2.47743e-20)
(0.0484744 0.0634786 -2.05058e-21)
(0.241488 -0.312112 -2.10077e-21)
(0.515084 -0.804761 -1.55486e-21)
(0.789532 -1.18176 -9.92288e-22)
(1.02578 -1.41117 0)
(1.20352 -1.49573 2.19221e-21)
(1.3191 -1.45449 -1.46394e-21)
(1.39477 -1.3426 0)
(1.44345 -1.18811 -1.14656e-21)
(1.47055 -1.01153 0)
(1.48452 -0.829711 3.28936e-21)
(1.48764 -0.651931 0)
(1.47983 -0.483474 1.51326e-21)
(1.45981 -0.328905 3.17409e-21)
(1.42769 -0.189741 -3.29799e-21)
(1.38903 -0.0660277 0)
(1.34294 0.0457577 -3.46547e-21)
(1.28207 0.160495 0)
(1.20869 0.280823 0)
(1.12007 0.405101 -3.52147e-21)
(1.01996 0.526979 0)
(0.911719 0.636363 -5.20378e-22)
(0.795434 0.732407 0)
(0.666974 0.82524 0)
(0.528072 0.915719 5.38553e-22)
(0.385943 0.988831 -3.19998e-21)
(0.239301 1.04345 -3.69065e-21)
(0.0895602 1.08241 -3.09585e-21)
(-0.0634319 1.10627 0)
(-0.22631 1.12275 -6.66511e-21)
(-0.398297 1.13874 0)
(-0.572085 1.13739 -3.64844e-21)
(-0.745939 1.11789 0)
(-0.92257 1.09005 0)
(-1.09363 1.04927 3.86789e-21)
(-1.26589 1.01276 0)
(-1.43067 0.970099 -4.09644e-21)
(-1.58441 0.918579 5.10534e-22)
(-1.73671 0.877371 8.23408e-21)
(-1.88284 0.842997 -9.05698e-21)
(-2.02072 0.811068 0)
(-2.14711 0.76668 0)
(-2.26591 0.712642 -5.55567e-21)
(-2.38185 0.654898 0)
(-2.50997 0.615098 -4.73874e-21)
(-2.62754 0.566757 4.87903e-21)
(-2.73196 0.512105 5.00855e-21)
(-2.82992 0.461537 0)
(-2.93289 0.437437 -5.21604e-21)
(-3.03708 0.426209 -5.28992e-21)
(-3.16691 0.442541 1.19214e-20)
(-3.30205 0.467456 -5.38153e-21)
(-3.43812 0.482068 -5.40241e-21)
(-3.56286 0.49096 0)
(-3.67615 0.50229 0)
(-3.77344 0.493561 5.38062e-21)
(-3.8681 0.475128 0)
(-3.96534 0.450519 0)
(-4.04747 0.408752 -1.055e-20)
(-4.11159 0.356138 -1.04943e-20)
(-4.15594 0.308257 0)
(-4.18253 0.263119 0)
(-4.19902 0.220435 0)
(-4.21197 0.184883 0)
(-4.22379 0.157094 -1.04805e-20)
(-4.23662 0.136908 1.14839e-20)
(-4.25077 0.117769 1.04888e-20)
(-4.26928 0.107423 2.18724e-20)
(-4.29306 0.111082 0)
(-4.32215 0.121132 8.91296e-22)
(-4.35199 0.132636 0)
(-4.37843 0.143431 -1.02478e-20)
(-4.3993 0.151117 8.63884e-22)
(-4.41279 0.154611 -1.01124e-20)
(-4.42872 0.164008 1.00383e-20)
(-4.43386 0.172754 8.48126e-22)