/*--------------------------------*- C++ -*----------------------------------*\
  =========                 |
  \\      /  F ield         | OpenFOAM: The Open Source CFD Toolbox
   \\    /   O peration     | Website:  https://openfoam.org
    \\  /    A nd           | Version:  6
     \\/     M anipulation  |
\*---------------------------------------------------------------------------*/
FoamFile
{
    version     2.0;
    format      ascii;
    class       volSymmTensorField;
    location    "0.45";
    object      UPrime2Mean;
}
// * * * * * * * * * * * * * * * * * * * * * * * * * * * * * * * * * * * * * //

dimensions      [0 2 -2 0 0 0 0];

internalField   nonuniform List<symmTensor> 
12225
(
(0.02272 -0.000134859 0 0.00368436 0 0)
(0.014543 -0.000248042 0 0.00204574 0 0)
(0.0131898 -0.000246001 0 0.00145502 0 0)
(0.0132011 -0.000239721 0 0.00111053 0 0)
(0.0137476 -0.000246682 0 0.000880857 0 0)
(0.0153401 -0.00027525 0 0.000717652 0 0)
(0.0188666 -0.000387521 0 0.000601222 0 0)
(0.0246254 -0.000504014 0 0.00050914 0 0)
(0.0342622 -0.000890447 0 0.000455307 0 0)
(0.0471508 -0.0010307 0 0.000394016 0 0)
(0.0693291 -0.00229987 0 0.000412843 0 0)
(0.0959202 -0.00212712 0 0.000361548 0 0)
(0.148283 -0.00641691 0 0.000579006 0 0)
(0.204096 -0.00446519 0 0.000531501 0 0)
(0.335654 -0.0197195 0 0.00165987 0 0)
(0.463017 -0.0102983 0 0.001745 0 0)
(0.831576 -0.0706474 0 0.00870063 0 0)
(1.21152 -0.0262615 0 0.00569289 0 0)
(0.0243275 0.000384487 0 0.00328795 0 0)
(0.0168238 0.000436362 0 0.00166445 0 0)
(0.0144578 0.000374512 0 0.00118198 0 0)
(0.0131491 0.000306604 0 0.000960686 0 0)
(0.0122771 0.000251813 0 0.000831832 0 0)
(0.0119372 0.000151462 0 0.000749614 0 0)
(0.012328 -3.5379e-05 0 0.000692202 0 0)
(0.0136372 -0.000366973 0 0.000675581 0 0)
(0.0162175 -0.000812264 0 0.000668303 0 0)
(0.0205814 -0.00159982 0 0.000750455 0 0)
(0.0276833 -0.00257641 0 0.000827624 0 0)
(0.0389369 -0.00456051 0 0.00113036 0 0)
(0.0565285 -0.00696416 0 0.00143281 0 0)
(0.0845335 -0.0122127 0 0.00236539 0 0)
(0.127717 -0.0191253 0 0.00354972 0 0)
(0.201207 -0.0343994 0 0.00667966 0 0)
(0.311456 -0.060082 0 0.0125805 0 0)
(0.515158 -0.115624 0 0.0289888 0 0)
(0.0252252 0.000247351 0 0.00408879 0 0)
(0.0176182 0.000372644 0 0.00213589 0 0)
(0.0153569 0.000172493 0 0.00146137 0 0)
(0.0141544 -9.2077e-06 0 0.00117825 0 0)
(0.0134279 -0.000143299 0 0.00103114 0 0)
(0.013254 -0.000292359 0 0.000951084 0 0)
(0.0137097 -0.000521303 0 0.000920942 0 0)
(0.0148484 -0.000882225 0 0.000939402 0 0)
(0.0168236 -0.00143833 0 0.00102878 0 0)
(0.0199072 -0.00227288 0 0.00120406 0 0)
(0.024548 -0.00356853 0 0.00152742 0 0)
(0.0314118 -0.00552794 0 0.00205944 0 0)
(0.0414609 -0.00864537 0 0.00300371 0 0)
(0.0561824 -0.0134931 0 0.00460766 0 0)
(0.0777521 -0.0214923 0 0.00763512 0 0)
(0.109059 -0.0351217 0 0.0134908 0 0)
(0.153416 -0.0588363 0 0.0258357 0 0)
(0.205546 -0.105117 0 0.0611611 0 0)
(0.0243239 0.000323849 0 0.00467966 0 0)
(0.016259 0.00025424 0 0.00261389 0 0)
(0.0138051 9.77925e-05 0 0.00182891 0 0)
(0.0126039 -4.21938e-05 0 0.00150113 0 0)
(0.0119178 -0.000181831 0 0.00134551 0 0)
(0.0117062 -0.00037288 0 0.00127505 0 0)
(0.012018 -0.000667892 0 0.00126296 0 0)
(0.01297 -0.00112796 0 0.00132235 0 0)
(0.0147435 -0.00181925 0 0.00147826 0 0)
(0.0176213 -0.00285786 0 0.00177205 0 0)
(0.0219347 -0.00441726 0 0.00228286 0 0)
(0.0282817 -0.00676639 0 0.00311155 0 0)
(0.0372809 -0.0104058 0 0.00455366 0 0)
(0.0501162 -0.0159406 0 0.00693716 0 0)
(0.0676763 -0.0249271 0 0.0114482 0 0)
(0.0912471 -0.0389598 0 0.0195815 0 0)
(0.119824 -0.0623849 0 0.0370325 0 0)
(0.148195 -0.0967119 0 0.0707539 0 0)
(0.0248755 0.000317469 0 0.00496925 0 0)
(0.016802 0.000435351 0 0.00286367 0 0)
(0.0143361 0.000197327 0 0.00199696 0 0)
(0.0133179 -1.69023e-05 0 0.00166095 0 0)
(0.0127455 -0.000199387 0 0.00153004 0 0)
(0.0125054 -0.000428027 0 0.0015037 0 0)
(0.0127039 -0.000771288 0 0.00155454 0 0)
(0.0134933 -0.00130518 0 0.0016996 0 0)
(0.0150523 -0.00211694 0 0.00197554 0 0)
(0.0175997 -0.00333995 0 0.00245421 0 0)
(0.0214727 -0.00516453 0 0.0032291 0 0)
(0.0271287 -0.00791023 0 0.00449192 0 0)
(0.0352404 -0.0120287 0 0.00653797 0 0)
(0.0464659 -0.0182972 0 0.00998796 0 0)
(0.0616263 -0.027811 0 0.0158896 0 0)
(0.0805037 -0.0423721 0 0.0266104 0 0)
(0.102314 -0.0636136 0 0.0456138 0 0)
(0.122691 -0.0919693 0 0.0792197 0 0)
(0.0248866 0.000223156 0 0.00528946 0 0)
(0.0166865 8.7582e-05 0 0.00321766 0 0)
(0.014477 -8.6223e-05 0 0.00225113 0 0)
(0.0135495 -0.000255975 0 0.00188506 0 0)
(0.0129804 -0.000439145 0 0.00176035 0 0)
(0.0127604 -0.000696606 0 0.00176626 0 0)
(0.0129923 -0.00109364 0 0.00187795 0 0)
(0.0137842 -0.00171022 0 0.00211539 0 0)
(0.0152893 -0.00264805 0 0.00253007 0 0)
(0.0177091 -0.0040475 0 0.00320542 0 0)
(0.0213339 -0.00611795 0 0.00427741 0 0)
(0.0265068 -0.00915982 0 0.0059714 0 0)
(0.0336992 -0.0136441 0 0.00867611 0 0)
(0.0432687 -0.0202241 0 0.0130801 0 0)
(0.0555876 -0.0298367 0 0.0203439 0 0)
(0.0701485 -0.043599 0 0.0325809 0 0)
(0.0861759 -0.062184 0 0.0525023 0 0)
(0.100746 -0.0852073 0 0.0843575 0 0)
(0.024649 9.47429e-05 0 0.00530239 0 0)
(0.0172144 0.000143515 0 0.00339454 0 0)
(0.0152199 -9.10336e-05 0 0.00237385 0 0)
(0.0143519 -0.000359196 0 0.00200642 0 0)
(0.0138056 -0.000632731 0 0.00193842 0 0)
(0.013576 -0.00100042 0 0.00204044 0 0)
(0.0137902 -0.00153638 0 0.00227251 0 0)
(0.0145794 -0.00231181 0 0.00265752 0 0)
(0.0160696 -0.00342681 0 0.00326335 0 0)
(0.0184038 -0.00503478 0 0.00420664 0 0)
(0.0218016 -0.00735611 0 0.0056557 0 0)
(0.0265262 -0.0106994 0 0.00789369 0 0)
(0.032901 -0.0154859 0 0.0113527 0 0)
(0.0411013 -0.0222794 0 0.0167993 0 0)
(0.0511913 -0.0317327 0 0.0253365 0 0)
(0.062622 -0.0444808 0 0.0388297 0 0)
(0.0746477 -0.060634 0 0.0592791 0 0)
(0.0853203 -0.0794585 0 0.0895553 0 0)
(0.0244621 -0.000110696 0 0.00607652 0 0)
(0.0165669 7.37413e-05 0 0.00401107 0 0)
(0.0143128 -0.000155031 0 0.00287346 0 0)
(0.0133102 -0.000410926 0 0.00246622 0 0)
(0.0127473 -0.000637634 0 0.00238741 0 0)
(0.0125829 -0.000951072 0 0.00250282 0 0)
(0.0128257 -0.00145829 0 0.00278497 0 0)
(0.0135171 -0.00224192 0 0.00327131 0 0)
(0.0147548 -0.00339959 0 0.0040467 0 0)
(0.0166808 -0.00507428 0 0.00524811 0 0)
(0.019487 -0.00746928 0 0.00707009 0 0)
(0.0233712 -0.0108571 0 0.00982948 0 0)
(0.0285325 -0.0155834 0 0.0139866 0 0)
(0.0350196 -0.0220666 0 0.0203088 0 0)
(0.0427318 -0.0307122 0 0.029789 0 0)
(0.0511689 -0.0418195 0 0.0439984 0 0)
(0.0596922 -0.0551779 0 0.0644142 0 0)
(0.0670687 -0.0700114 0 0.0931642 0 0)
(0.0255969 0.000257645 0 0.00623533 0 0)
(0.0177709 0.000210683 0 0.00423492 0 0)
(0.0155287 -3.01676e-05 0 0.00303989 0 0)
(0.0145083 -0.000357846 0 0.00263208 0 0)
(0.0139508 -0.000699563 0 0.00261962 0 0)
(0.0138072 -0.00111421 0 0.00284096 0 0)
(0.0140616 -0.00169439 0 0.00326274 0 0)
(0.0147154 -0.00253461 0 0.00393211 0 0)
(0.0158092 -0.00374458 0 0.00495219 0 0)
(0.0174255 -0.00546882 0 0.0064845 0 0)
(0.0197034 -0.00789755 0 0.00875164 0 0)
(0.0227742 -0.0112677 0 0.0120987 0 0)
(0.026751 -0.0158507 0 0.0169971 0 0)
(0.0315995 -0.0219226 0 0.024178 0 0)
(0.0371654 -0.0296941 0 0.0345125 0 0)
(0.0430451 -0.0392091 0 0.0492878 0 0)
(0.0487824 -0.0501135 0 0.0695848 0 0)
(0.0536384 -0.0616349 0 0.0969227 0 0)
(0.0245341 -5.11755e-05 0 0.00651201 0 0)
(0.0166114 2.79655e-06 0 0.00458024 0 0)
(0.0146426 -0.000203631 0 0.00339992 0 0)
(0.0138883 -0.0004008 0 0.00300138 0 0)
(0.0133963 -0.000584855 0 0.00301872 0 0)
(0.0131179 -0.000867874 0 0.00329141 0 0)
(0.0130961 -0.00134768 0 0.00379254 0 0)
(0.0133724 -0.00210711 0 0.00458326 0 0)
(0.0140156 -0.00324232 0 0.00578561 0 0)
(0.0151159 -0.00487531 0 0.00758137 0 0)
(0.0167813 -0.00716162 0 0.0102077 0 0)
(0.019073 -0.0102814 0 0.0140153 0 0)
(0.022013 -0.0144324 0 0.0194566 0 0)
(0.0254863 -0.0197735 0 0.0272006 0 0)
(0.029331 -0.0263898 0 0.0379764 0 0)
(0.0331784 -0.0341813 0 0.0528335 0 0)
(0.0368155 -0.0427613 0 0.0725168 0 0)
(0.0396692 -0.0514038 0 0.0981229 0 0)
(0.0240375 0.000142494 0 0.00695266 0 0)
(0.0165485 9.65976e-05 0 0.00523402 0 0)
(0.0146365 -0.000312637 0 0.00400895 0 0)
(0.0139885 -0.000756518 0 0.0035854 0 0)
(0.0136619 -0.00114114 0 0.00364375 0 0)
(0.013564 -0.00157399 0 0.00402675 0 0)
(0.0137534 -0.00219089 0 0.00470053 0 0)
(0.0142774 -0.00310111 0 0.005726 0 0)
(0.0151452 -0.00440159 0 0.00723113 0 0)
(0.0163498 -0.00619104 0 0.00940785 0 0)
(0.0179136 -0.00858037 0 0.0124996 0 0)
(0.0198456 -0.0116836 0 0.0168524 0 0)
(0.0221607 -0.0156102 0 0.0228797 0 0)
(0.0247442 -0.0204077 0 0.0311714 0 0)
(0.0274759 -0.0260463 0 0.0422998 0 0)
(0.0300648 -0.0323256 0 0.0571063 0 0)
(0.0324252 -0.0388338 0 0.0760391 0 0)
(0.034201 -0.0449506 0 0.0999332 0 0)
(0.0237114 0.000221274 0 0.00701832 0 0)
(0.0164763 -1.80368e-05 0 0.00528698 0 0)
(0.0145646 -0.000217406 0 0.00404542 0 0)
(0.013764 -0.000505865 0 0.00361823 0 0)
(0.0132854 -0.000793898 0 0.00370475 0 0)
(0.0130247 -0.00115477 0 0.00413521 0 0)
(0.0129852 -0.00169955 0 0.00487198 0 0)
(0.0131961 -0.00251885 0 0.00598821 0 0)
(0.013677 -0.00368728 0 0.00762652 0 0)
(0.014424 -0.00527693 0 0.00998799 0 0)
(0.0154434 -0.00737066 0 0.0133128 0 0)
(0.0167132 -0.0100486 0 0.0179307 0 0)
(0.018227 -0.0133715 0 0.0242099 0 0)
(0.0198919 -0.017327 0 0.0326682 0 0)
(0.021606 -0.0218166 0 0.0437441 0 0)
(0.0232021 -0.0266172 0 0.0581215 0 0)
(0.0246195 -0.0313173 0 0.0760303 0 0)
(0.0257168 -0.0354248 0 0.0981528 0 0)
(0.0247613 -0.00022224 0 0.00763454 0 0)
(0.0168957 -0.000640271 0 0.00587742 0 0)
(0.0148215 -0.000948856 0 0.00458601 0 0)
(0.0139376 -0.00124835 0 0.0041856 0 0)
(0.0133637 -0.00149085 0 0.00434 0 0)
(0.0129987 -0.00176336 0 0.00489316 0 0)
(0.0128608 -0.00219677 0 0.00581619 0 0)
(0.0129733 -0.00290036 0 0.00717163 0 0)
(0.0133469 -0.00394995 0 0.00908839 0 0)
(0.0139673 -0.0053924 0 0.0117614 0 0)
(0.0148048 -0.00726575 0 0.0154209 0 0)
(0.0157895 -0.00959614 0 0.0203754 0 0)
(0.016859 -0.0123895 0 0.026944 0 0)
(0.0179134 -0.0155778 0 0.0355645 0 0)
(0.0188682 -0.0190231 0 0.0465589 0 0)
(0.0196677 -0.0224947 0 0.0604713 0 0)
(0.0203237 -0.0256119 0 0.0773731 0 0)
(0.0208495 -0.0279979 0 0.0978273 0 0)
(0.0252579 -0.000440624 0 0.00821293 0 0)
(0.0176185 -0.000678146 0 0.00667503 0 0)
(0.0154552 -0.000865521 0 0.00527772 0 0)
(0.0145369 -0.00109133 0 0.00478899 0 0)
(0.0139769 -0.00126375 0 0.00490782 0 0)
(0.0136178 -0.00147133 0 0.00548198 0 0)
(0.0134441 -0.0018423 0 0.00648333 0 0)
(0.0134167 -0.00245706 0 0.0079673 0 0)
(0.0135096 -0.00335151 0 0.0100487 0 0)
(0.0137194 -0.00453336 0 0.0129044 0 0)
(0.0140415 -0.00600265 0 0.0167377 0 0)
(0.0144436 -0.00774804 0 0.0218189 0 0)
(0.0148694 -0.00974011 0 0.0284048 0 0)
(0.015256 -0.0118876 0 0.0368583 0 0)
(0.015534 -0.014045 0 0.0473844 0 0)
(0.0156982 -0.0160078 0 0.0604293 0 0)
(0.015799 -0.0174388 0 0.0759241 0 0)
(0.0159221 -0.0180744 0 0.0943653 0 0)
(0.0253653 0.000150837 0 0.0088796 0 0)
(0.0166815 -0.000294244 0 0.00735735 0 0)
(0.0141847 -0.000506538 0 0.00590975 0 0)
(0.0132376 -0.00067438 0 0.00548034 0 0)
(0.012631 -0.000805782 0 0.00573644 0 0)
(0.0121122 -0.00095707 0 0.0064715 0 0)
(0.0117301 -0.00120037 0 0.00762607 0 0)
(0.0115339 -0.00159422 0 0.00925731 0 0)
(0.0115082 -0.00217495 0 0.0114906 0 0)
(0.0115861 -0.00294807 0 0.0145043 0 0)
(0.0116912 -0.00389777 0 0.0184824 0 0)
(0.0117652 -0.00497571 0 0.0236507 0 0)
(0.0117889 -0.00611493 0 0.0301923 0 0)
(0.0117666 -0.00718891 0 0.0383788 0 0)
(0.0117054 -0.0080507 0 0.048303 0 0)
(0.0116607 -0.00851497 0 0.0602976 0 0)
(0.0117451 -0.00832737 0 0.0742047 0 0)
(0.0120063 -0.00728592 0 0.0904208 0 0)
(0.023853 6.77968e-05 0 0.00984524 0 0)
(0.0161208 -0.000358909 0 0.00850308 0 0)
(0.0140002 -0.000687654 0 0.00685645 0 0)
(0.0131663 -0.000883224 0 0.00620152 0 0)
(0.0126226 -0.000905132 0 0.00636928 0 0)
(0.0120817 -0.000886466 0 0.00715031 0 0)
(0.011588 -0.000962926 0 0.00841612 0 0)
(0.0112256 -0.00119039 0 0.0101672 0 0)
(0.0110157 -0.00154394 0 0.0124998 0 0)
(0.0109134 -0.00195372 0 0.0155699 0 0)
(0.0108556 -0.0023523 0 0.0195236 0 0)
(0.0108011 -0.00267211 0 0.0245314 0 0)
(0.0107501 -0.00285343 0 0.0307067 0 0)
(0.0107321 -0.00279435 0 0.0382431 0 0)
(0.0107774 -0.00239232 0 0.0471457 0 0)
(0.0109616 -0.00149743 0 0.0576846 0 0)
(0.0114011 5.17312e-05 0 0.0696223 0 0)
(0.0121757 0.0024208 0 0.083321 0 0)
(0.0251325 0.000230301 0 0.00991179 0 0)
(0.0169244 -0.000153642 0 0.00883803 0 0)
(0.0140526 -0.000561007 0 0.00711428 0 0)
(0.0126503 -0.000652139 0 0.00646254 0 0)
(0.0118011 -0.000489677 0 0.00663012 0 0)
(0.0111883 -0.000265209 0 0.00738611 0 0)
(0.010711 -0.00011838 0 0.00862821 0 0)
(0.0103409 -7.42274e-05 0 0.0103619 0 0)
(0.010066 -7.36211e-05 0 0.012657 0 0)
(0.00986016 -2.88201e-05 0 0.0156259 0 0)
(0.00969127 0.000127595 0 0.0193675 0 0)
(0.00956386 0.00046595 0 0.0239987 0 0)
(0.00951315 0.00104294 0 0.0295735 0 0)
(0.00960351 0.0019678 0 0.0362159 0 0)
(0.00987912 0.00331344 0 0.0438671 0 0)
(0.0104206 0.00521881 0 0.0527276 0 0)
(0.0113195 0.00774366 0 0.0625399 0 0)
(0.0126229 0.0110517 0 0.0736036 0 0)
(0.0231387 0.000211971 0 0.010331 0 0)
(0.0149955 -0.000426364 0 0.00961788 0 0)
(0.0122227 -0.000876728 0 0.00796453 0 0)
(0.0107286 -0.000905456 0 0.00731657 0 0)
(0.00976744 -0.000711549 0 0.00747202 0 0)
(0.00909564 -0.000469298 0 0.00820514 0 0)
(0.00863767 -0.000269341 0 0.00938695 0 0)
(0.00837559 -0.000101161 0 0.0109898 0 0)
(0.00829066 0.000113962 0 0.0130552 0 0)
(0.0083281 0.000471012 0 0.0156649 0 0)
(0.00842649 0.00103803 0 0.0188807 0 0)
(0.00857654 0.00187482 0 0.0227747 0 0)
(0.00882148 0.00301993 0 0.0273581 0 0)
(0.00924465 0.00454768 0 0.032706 0 0)
(0.00990804 0.00649861 0 0.0387338 0 0)
(0.0109194 0.00896461 0 0.0455967 0 0)
(0.0123384 0.0119647 0 0.0530582 0 0)
(0.0142684 0.0156177 0 0.0613406 0 0)
(0.0244995 -4.67733e-05 0 0.0102778 0 0)
(0.0166983 -2.93886e-05 0 0.0095741 0 0)
(0.0135937 -0.000314478 0 0.00797319 0 0)
(0.0116709 -0.000241811 0 0.00719202 0 0)
(0.0105869 6.66941e-05 0 0.00716567 0 0)
(0.00997403 0.000404453 0 0.00771228 0 0)
(0.00960673 0.00072162 0 0.00868564 0 0)
(0.00942247 0.00108402 0 0.010017 0 0)
(0.00942712 0.00159377 0 0.0116985 0 0)
(0.00959758 0.00233419 0 0.0137643 0 0)
(0.0098929 0.0033464 0 0.0162462 0 0)
(0.0103198 0.00465661 0 0.0191889 0 0)
(0.0109301 0.00627617 0 0.0225923 0 0)
(0.0118109 0.00824485 0 0.0264971 0 0)
(0.0130155 0.0105807 0 0.0308193 0 0)
(0.014635 0.0133381 0 0.0356652 0 0)
(0.0167103 0.0165168 0 0.0408439 0 0)
(0.0193022 0.0201819 0 0.0465004 0 0)
(0.0237343 0.000148301 0 0.0109434 0 0)
(0.0157299 0.000614347 0 0.0094448 0 0)
(0.013053 0.000486445 0 0.00726958 0 0)
(0.011731 0.000451685 0 0.00637954 0 0)
(0.0110332 0.000598093 0 0.00626941 0 0)
(0.0107168 0.000851439 0 0.00662792 0 0)
(0.010576 0.00120821 0 0.00731256 0 0)
(0.0105218 0.00171985 0 0.00826272 0 0)
(0.0105947 0.0024331 0 0.00946667 0 0)
(0.0108582 0.00337479 0 0.0109428 0 0)
(0.0113494 0.00455687 0 0.0127039 0 0)
(0.012104 0.0059982 0 0.0147653 0 0)
(0.0131594 0.0077112 0 0.0171141 0 0)
(0.014572 0.00972852 0 0.0197699 0 0)
(0.016359 0.0120556 0 0.0226679 0 0)
(0.0185896 0.0147235 0 0.025881 0 0)
(0.0212746 0.01772 0 0.0292867 0 0)
(0.024463 0.0210828 0 0.0329541 0 0)
(0.0239535 0.000319091 0 0.0099973 0 0)
(0.0154146 0.000369015 0 0.00854936 0 0)
(0.0129575 0.00023691 0 0.00661729 0 0)
(0.0117644 0.000229613 0 0.00582643 0 0)
(0.0110328 0.000330439 0 0.0057145 0 0)
(0.0105983 0.000521212 0 0.00598153 0 0)
(0.0103869 0.000838534 0 0.00647997 0 0)
(0.0103953 0.00133473 0 0.00715092 0 0)
(0.0106549 0.00203346 0 0.00799449 0 0)
(0.0111697 0.00293389 0 0.00903639 0 0)
(0.0119257 0.00403179 0 0.0102886 0 0)
(0.012938 0.0053428 0 0.0117541 0 0)
(0.0142492 0.00688452 0 0.0134134 0 0)
(0.0159299 0.00869216 0 0.0152731 0 0)
(0.0180075 0.0107678 0 0.017281 0 0)
(0.0205521 0.0131295 0 0.0194962 0 0)
(0.023566 0.0157539 0 0.0218324 0 0)
(0.0270721 0.0186536 0 0.0243291 0 0)
(0.0244369 0.000635525 0 0.00955982 0 0)
(0.0161834 0.000703101 0 0.00809516 0 0)
(0.0138826 0.000570341 0 0.00615592 0 0)
(0.0127908 0.000617953 0 0.00523386 0 0)
(0.0121247 0.000762228 0 0.00495322 0 0)
(0.0117594 0.000962376 0 0.00503304 0 0)
(0.0116064 0.00125179 0 0.0053124 0 0)
(0.0116252 0.00168678 0 0.00572025 0 0)
(0.0118499 0.00229946 0 0.00624804 0 0)
(0.0123367 0.00309621 0 0.00691413 0 0)
(0.0131209 0.00407388 0 0.00772921 0 0)
(0.0142301 0.00523836 0 0.00869557 0 0)
(0.0156882 0.00659386 0 0.00979871 0 0)
(0.017537 0.00815936 0 0.0110393 0 0)
(0.019786 0.00993264 0 0.0123785 0 0)
(0.0224833 0.0119261 0 0.0138602 0 0)
(0.0256511 0.0141338 0 0.0154252 0 0)
(0.029263 0.0165521 0 0.0170841 0 0)
(0.0245058 0.000299371 0 0.00908618 0 0)
(0.0165754 0.000390541 0 0.00718412 0 0)
(0.0144489 0.000290363 0 0.00545027 0 0)
(0.0134749 0.000331062 0 0.00470577 0 0)
(0.0128251 0.000473623 0 0.00445616 0 0)
(0.0124125 0.000698869 0 0.00447849 0 0)
(0.0122287 0.00102243 0 0.00466227 0 0)
(0.012282 0.00146829 0 0.0049492 0 0)
(0.0126106 0.00204862 0 0.00531533 0 0)
(0.0132524 0.00276304 0 0.0057622 0 0)
(0.0142244 0.00361244 0 0.00629963 0 0)
(0.0155407 0.00461231 0 0.00693723 0 0)
(0.0172234 0.00577867 0 0.00767218 0 0)
(0.0193061 0.00713275 0 0.00850529 0 0)
(0.0217959 0.00867328 0 0.00940587 0 0)
(0.024724 0.0104001 0 0.0104088 0 0)
(0.028108 0.0123043 0 0.0114711 0 0)
(0.0319018 0.0143693 0 0.0125817 0 0)
(0.0250296 0.000312411 0 0.0080044 0 0)
(0.0174887 0.000216258 0 0.00606002 0 0)
(0.0154132 0.000142392 0 0.0044641 0 0)
(0.0142049 0.000287839 0 0.00373365 0 0)
(0.0133974 0.000491395 0 0.00343405 0 0)
(0.0129495 0.000723903 0 0.00336867 0 0)
(0.0127993 0.00101404 0 0.00343631 0 0)
(0.0129331 0.00139578 0 0.00358319 0 0)
(0.0133857 0.00188539 0 0.00379302 0 0)
(0.0141777 0.002485 0 0.00406928 0 0)
(0.0152981 0.00319542 0 0.00441546 0 0)
(0.0167399 0.0040276 0 0.00483025 0 0)
(0.0185227 0.00499295 0 0.00530601 0 0)
(0.0206958 0.0061081 0 0.00584082 0 0)
(0.0232794 0.00737294 0 0.0064133 0 0)
(0.0263326 0.00878982 0 0.00705044 0 0)
(0.0298719 0.0103506 0 0.00772572 0 0)
(0.0338586 0.0120459 0 0.00843207 0 0)
(0.0240739 0.000134314 0 0.00741018 0 0)
(0.0168381 0.000204836 0 0.00540187 0 0)
(0.015042 0.000182191 0 0.00399303 0 0)
(0.0141208 0.000255702 0 0.00332647 0 0)
(0.0134811 0.000390177 0 0.00305521 0 0)
(0.013081 0.000570444 0 0.00299305 0 0)
(0.0129033 0.000778728 0 0.00302788 0 0)
(0.0129617 0.00102721 0 0.00310378 0 0)
(0.013302 0.00134811 0 0.00320998 0 0)
(0.0139604 0.00177126 0 0.00335706 0 0)
(0.0149453 0.00231327 0 0.00355312 0 0)
(0.0162623 0.00298002 0 0.00379764 0 0)
(0.0179323 0.00376729 0 0.00408517 0 0)
(0.0200021 0.0046736 0 0.00441391 0 0)
(0.0224806 0.00568846 0 0.00476737 0 0)
(0.0254252 0.00681434 0 0.00516861 0 0)
(0.0288434 0.00804778 0 0.00559861 0 0)
(0.0326937 0.00938462 0 0.00604019 0 0)
(0.0248418 0.000269702 0 0.00670009 0 0)
(0.0172142 0.000192314 0 0.00447882 0 0)
(0.0150451 0.000209624 0 0.00317155 0 0)
(0.0139644 0.000274011 0 0.00262356 0 0)
(0.0133054 0.000355596 0 0.00240214 0 0)
(0.0129941 0.00047938 0 0.00232752 0 0)
(0.0129745 0.000646237 0 0.00230822 0 0)
(0.0131917 0.000857122 0 0.00231325 0 0)
(0.0136468 0.00112521 0 0.00234411 0 0)
(0.0143825 0.00146514 0 0.00240931 0 0)
(0.0154409 0.00188622 0 0.0025108 0 0)
(0.0168525 0.00239539 0 0.00264452 0 0)
(0.0186375 0.00299614 0 0.00280555 0 0)
(0.0208249 0.00369361 0 0.00299313 0 0)
(0.0234071 0.00448512 0 0.00319769 0 0)
(0.0264245 0.0053695 0 0.00343579 0 0)
(0.0298937 0.00634488 0 0.00369398 0 0)
(0.0337609 0.00740194 0 0.00396022 0 0)
(0.0240624 -0.000236704 0 0.00597093 0 0)
(0.0167192 -0.000276531 0 0.00385802 0 0)
(0.0150775 -0.000191853 0 0.00279978 0 0)
(0.0142828 -6.21209e-05 0 0.00233786 0 0)
(0.0136963 5.31671e-05 0 0.00212251 0 0)
(0.0133625 0.000170225 0 0.00202186 0 0)
(0.0133222 0.000303709 0 0.00196385 0 0)
(0.0135647 0.000467341 0 0.00192098 0 0)
(0.0140837 0.000676583 0 0.00189387 0 0)
(0.0148898 0.000942881 0 0.00188989 0 0)
(0.0160075 0.00127348 0 0.00191148 0 0)
(0.017476 0.00167549 0 0.00195595 0 0)
(0.0193403 0.00215232 0 0.00202066 0 0)
(0.021648 0.00270623 0 0.00210463 0 0)
(0.0243969 0.00333071 0 0.0021999 0 0)
(0.0276222 0.00402007 0 0.00232025 0 0)
(0.0313201 0.00476802 0 0.00245531 0 0)
(0.0354319 0.00557098 0 0.0025925 0 0)
(0.0256123 -0.000187521 0 0.00502387 0 0)
(0.0180802 -0.000155328 0 0.00289344 0 0)
(0.0159573 -9.84741e-05 0 0.00203732 0 0)
(0.0147949 5.35141e-06 0 0.00169385 0 0)
(0.013981 0.000106813 0 0.00152785 0 0)
(0.013468 0.000180123 0 0.00143436 0 0)
(0.013284 0.000248972 0 0.00136685 0 0)
(0.0134307 0.000346834 0 0.00131246 0 0)
(0.0138911 0.000489214 0 0.00127251 0 0)
(0.0146478 0.000675002 0 0.00124923 0 0)
(0.0157019 0.000900655 0 0.00124217 0 0)
(0.0170872 0.00116922 0 0.00124981 0 0)
(0.0188588 0.00148679 0 0.00127188 0 0)
(0.0210721 0.00185948 0 0.00130884 0 0)
(0.0237293 0.00228713 0 0.00135674 0 0)
(0.0268637 0.00276806 0 0.00142397 0 0)
(0.030472 0.00329915 0 0.00150371 0 0)
(0.0344681 0.00388085 0 0.00158783 0 0)
(0.0239156 -4.56469e-05 0 0.00401805 0 0)
(0.0176343 -0.00029329 0 0.00224651 0 0)
(0.0158769 -0.00035034 0 0.00167213 0 0)
(0.0146708 -0.000321721 0 0.00141795 0 0)
(0.0138642 -0.000313665 0 0.00127381 0 0)
(0.0134791 -0.000330511 0 0.00117422 0 0)
(0.0134017 -0.000342329 0 0.00109351 0 0)
(0.013554 -0.000326615 0 0.00102609 0 0)
(0.0139522 -0.000274525 0 0.000971653 0 0)
(0.0146604 -0.000185462 0 0.000928872 0 0)
(0.0157457 -5.94736e-05 0 0.000895673 0 0)
(0.0172665 0.00010689 0 0.000870478 0 0)
(0.0192675 0.000318847 0 0.00085329 0 0)
(0.0217946 0.000580108 0 0.000843597 0 0)
(0.0248505 0.000892061 0 0.000839254 0 0)
(0.0285021 0.0012515 0 0.00084631 0 0)
(0.0327779 0.00165984 0 0.000859424 0 0)
(0.0376396 0.00210811 0 0.000872811 0 0)
(0.0243599 0.000217732 0 0.00391889 0 0)
(0.0170526 0.000279665 0 0.00220714 0 0)
(0.0153095 0.00022564 0 0.00164809 0 0)
(0.0141453 0.000222183 0 0.0013524 0 0)
(0.0131408 0.000203495 0 0.00115951 0 0)
(0.0125565 0.000187883 0 0.00102038 0 0)
(0.0125312 0.00019356 0 0.000914387 0 0)
(0.013024 0.000213509 0 0.00083103 0 0)
(0.0139676 0.00023794 0 0.000764262 0 0)
(0.0153561 0.000267549 0 0.000709926 0 0)
(0.0172551 0.000311043 0 0.000664986 0 0)
(0.0197872 0.000377365 0 0.000627302 0 0)
(0.0230885 0.000471676 0 0.000595609 0 0)
(0.0272994 0.000594204 0 0.000568132 0 0)
(0.0325034 0.000746094 0 0.000543445 0 0)
(0.0388601 0.000924862 0 0.000527148 0 0)
(0.0463787 0.00112949 0 0.000512221 0 0)
(0.0551462 0.00136053 0 0.000490539 0 0)
(0.0125466 -0.00762493 4.58484e-23 0.012218 -5.08883e-23 2.84913e-38)
(0.0675256 -0.0100658 -9.40514e-23 0.0156256 3.70707e-24 2.80867e-38)
(0.163646 -0.0154914 0 0.0289085 0 0)
(0.288448 -0.0207604 0 0.0494451 0 0)
(0.406047 -0.0272509 0 0.0708414 0 0)
(0.536674 -0.0462536 1.25473e-24 0.0930414 3.77518e-23 2.64537e-38)
(0.705132 -0.0831466 0 0.113355 0 0)
(0.940004 -0.134621 0 0.12406 0 0)
(1.25867 -0.188597 0 0.123065 0 0)
(1.66155 -0.235629 0 0.114571 0 0)
(2.13713 -0.271776 1.94326e-22 0.102066 5.88052e-23 2.4489e-38)
(2.66172 -0.289984 0 0.0870476 0 0)
(3.20511 -0.285313 0 0.0726418 0 0)
(3.74054 -0.263098 0 0.0605134 0 0)
(4.2466 -0.231386 0 0.0513174 0 0)
(4.70183 -0.192358 3.71773e-22 0.04484 1.04343e-22 2.26263e-38)
(5.09243 -0.147463 0 0.0409319 0 0)
(5.41203 -0.100414 0 0.0401302 0 0)
(5.65857 -0.0564105 0 0.0422129 0 0)
(5.83325 -0.0185593 0 0.0461131 0 0)
(5.94426 0.00913713 0 0.0535425 0 0)
(6.01858 0.0246007 0 0.0623757 0 0)
(6.06376 0.0384614 0 0.0715469 0 0)
(6.07967 0.0514451 -4.22316e-22 0.0822212 1.41017e-22 1.98617e-38)
(6.08095 0.0523666 6.40795e-22 0.0934557 -1.40212e-22 1.95336e-38)
(6.08326 0.045307 -8.84733e-22 0.106436 1.37813e-22 1.92092e-38)
(6.11594 0.0309714 -1.14727e-21 0.127987 1.26066e-22 1.88883e-38)
(6.18832 -0.00201141 0 0.139596 0 0)
(6.32386 -0.0370274 0 0.14336 0 0)
(6.53095 -0.0882209 2.0189e-21 0.142165 -1.06151e-22 1.79471e-38)
(6.81361 -0.146065 2.33929e-21 0.139624 -1.32141e-22 1.76404e-38)
(7.18607 -0.200675 0 0.134479 0 0)
(7.63833 -0.244749 0 0.132961 0 0)
(8.15702 -0.278908 3.33806e-21 0.130653 -9.28009e-23 1.67416e-38)
(8.72769 -0.309381 0 0.13708 0 0)
(9.33114 -0.324539 0 0.138244 0 0)
(9.96892 -0.356172 -4.43679e-21 0.147409 1.29937e-22 1.58753e-38)
(10.6484 -0.387547 0 0.153513 0 0)
(11.3725 -0.416743 -5.24196e-21 0.160178 1.44792e-22 1.53161e-38)
(12.1245 -0.428058 -1.13083e-20 0.15797 3.16307e-22 6.01679e-38)
(12.8899 -0.427378 0 0.155793 0 0)
(13.6682 -0.432043 0 0.146379 0 0)
(14.477 -0.460031 0 0.132852 0 0)
(15.3246 -0.476339 0 0.129705 0 0)
(16.1739 -0.465261 0 0.128098 0 0)
(17.0434 -0.458398 -1.63083e-20 0.135277 4.36545e-22 5.3893e-38)
(17.854 -0.461384 -1.70421e-20 0.139465 4.17892e-22 5.28982e-38)
(18.655 -0.458491 -1.7684e-20 0.139176 3.90876e-22 5.19179e-38)
(19.3706 -0.433989 0 0.137787 0 0)
(19.9664 -0.385523 1.87835e-20 0.136291 -4.31452e-22 4.99992e-38)
(20.485 -0.380223 0 0.130717 0 0)
(21.0219 -0.36932 -1.95925e-20 0.11436 4.08412e-22 4.81362e-38)
(21.5176 -0.357249 -1.99214e-20 0.117246 3.87279e-22 4.72255e-38)
(21.9487 -0.313714 0 0.116894 0 0)
(22.1991 -0.294512 0 0.12703 0 0)
(22.3885 -0.250678 0 0.133765 0 0)
(22.5067 -0.264566 -2.06937e-20 0.140097 2.60658e-22 4.37159e-38)
(22.6779 -0.287018 0 0.127741 0 0)
(22.9265 -0.309223 0 0.134901 0 0)
(23.2344 -0.348063 0 0.143526 0 0)
(23.5633 -0.331476 0 0.13774 0 0)
(23.8573 -0.319202 0 0.148123 0 0)
(24.138 -0.311262 0 0.147975 0 0)
(24.4519 -0.335956 0 0.149564 0 0)
(24.8958 -0.350495 0 0.145891 0 0)
(25.3807 -0.357147 2.30582e-20 0.142925 -4.01796e-22 3.65764e-38)
(25.9399 -0.363222 0 0.132835 0 0)
(26.5237 -0.356002 0 0.122172 0 0)
(27.1038 -0.352811 -2.44783e-20 0.115788 4.49078e-22 3.44166e-38)
(27.6013 -0.333384 -2.49965e-20 0.106025 4.16486e-22 3.37204e-38)
(28.0409 -0.32151 0 0.0975357 0 0)
(28.4236 -0.262308 2.58784e-20 0.0926437 -3.49304e-22 3.23622e-38)
(28.6209 -0.212418 -2.6077e-20 0.107199 2.72184e-22 3.16995e-38)
(28.7771 -0.191846 0 0.110926 0 0)
(28.904 -0.191644 2.60447e-20 0.113899 -1.64828e-22 3.04064e-38)
(28.968 -0.208625 0 0.112811 0 0)
(29.074 -0.231424 0 0.101819 0 0)
(29.1249 -0.191105 -2.55943e-20 0.104773 1.5774e-22 2.85471e-38)
(29.0473 -0.158797 0 0.0996617 0 0)
(28.8585 -0.16495 2.5178e-20 0.0907358 -1.34714e-22 2.73598e-38)
(28.7447 -0.144415 0 0.0817375 0 0)
(28.4814 -0.151122 -2.50061e-20 0.0815806 2.05517e-22 2.62133e-38)
(28.3236 -0.118037 -2.48927e-20 0.0753529 2.07544e-22 2.56549e-38)
(27.9463 -0.103655 -2.47735e-20 0.0810632 2.07901e-22 2.51062e-38)
(27.9548 -0.160917 -4.93694e-20 0.0775567 4.28967e-22 9.82678e-38)
(27.9033 -0.143827 4.90366e-20 0.0777811 -3.72201e-22 9.61485e-38)
(27.8766 -0.0870215 0 0.0736911 0 0)
(27.6381 -0.0260525 0 0.0845717 0 0)
(27.2935 -0.0491457 0 0.088119 0 0)
(27.1527 -0.0797298 4.65628e-20 0.0894795 -1.6996e-22 8.80331e-38)
(27.0161 -0.0616046 4.59132e-20 0.0926438 -1.85183e-22 8.60918e-38)
(26.929 -0.0908703 -4.55032e-20 0.0955901 3.17062e-22 8.41847e-38)
(27.1951 -0.12602 0 0.0922814 0 0)
(27.398 -0.137365 4.5247e-20 0.0993408 -3.32778e-22 8.04713e-38)
(27.8763 -0.222797 4.50527e-20 0.100303 -3.70203e-22 7.86649e-38)
(28.6945 -0.26839 4.51218e-20 0.0876099 -4.48087e-22 7.68917e-38)
(29.6393 -0.268358 0 0.0779894 0 0)
(30.4738 -0.2164 0 0.0710859 0 0)
(31.0427 -0.149446 0 0.0652395 0 0)
(31.2139 -0.0518205 4.57896e-20 0.0619517 -2.74381e-22 7.01201e-38)
(31.0769 0.0106127 0 0.0535823 0 0)
(30.6247 0.101789 0 0.0572943 0 0)
(29.7808 0.102624 -4.34961e-20 0.0752141 1.27417e-22 6.53586e-38)
(29.0696 0.0982946 0 0.0714182 0 0)
(28.4318 0.0555181 0 0.0736112 0 0)
(28.0135 0.0833856 -3.99775e-20 0.0765893 1.02188e-22 6.08507e-38)
(27.2622 0.0203232 0 0.107858 0 0)
(27.1245 -0.0996271 0 0.10045 0 0)
(27.3281 -0.143402 3.69329e-20 0.0870543 -2.61108e-22 5.65883e-38)
(27.7111 -0.151983 3.70492e-20 0.0781284 -3.48652e-22 5.52223e-38)
(28.1193 -0.144512 0 0.0691655 0 0)
(28.5182 -0.119726 -3.78469e-20 0.0597152 4.16382e-22 5.25694e-38)
(28.7937 -0.0842809 0 0.0517898 0 0)
(28.9638 -0.0513867 3.83371e-20 0.0467668 -3.56367e-22 5.00164e-38)
(28.9783 -0.018972 0 0.0443596 0 0)
(28.8597 0.00973291 3.7601e-20 0.0408382 -3.02069e-22 4.75579e-38)
(28.6129 0.039517 3.67979e-20 0.0370451 -2.58265e-22 4.63633e-38)
(28.2251 0.0678683 0 0.034204 0 0)
(27.7021 0.0928475 0 0.0321112 0 0)
(27.0534 0.110919 0 0.0300984 0 0)
(26.3055 0.126059 0 0.0309542 0 0)
(25.5483 0.12678 0 0.0289675 0 0)
(24.7685 0.145386 0 0.034959 0 0)
(23.9566 0.12044 0 0.0499538 0 0)
(23.3894 0.0814586 2.60733e-20 0.0461222 -1.91889e-22 3.75967e-38)
(22.9545 0.0460702 -2.51749e-20 0.0458657 2.16678e-22 3.65958e-38)
(22.7466 0.00496453 0 0.04333 0 0)
(22.6607 -0.0198717 0 0.0396427 0 0)
(22.6968 -0.0311993 0 0.0357264 0 0)
(22.7407 -0.024999 0 0.0342586 0 0)
(22.7544 -0.0148515 -4.826e-20 0.0332328 6.30475e-22 1.27559e-37)
(22.6417 0.000422121 0 0.0313423 0 0)
(22.5083 0.0179675 4.83992e-20 0.0309926 -3.95912e-22 1.20552e-37)
(22.3988 -0.0148549 -4.7793e-20 0.0529268 3.16765e-22 1.17152e-37)
(22.8898 -0.129979 0 0.0697613 0 0)
(23.6654 -0.163554 0 0.0585881 0 0)
(24.5718 -0.156564 0 0.0497294 0 0)
(25.4932 -0.167228 5.13823e-20 0.0529182 -7.44956e-22 1.04237e-37)
(26.4924 -0.146293 5.2987e-20 0.0396177 -6.51516e-22 1.01178e-37)
(27.1515 -0.0823742 0 0.0301903 0 0)
(27.5484 -0.0290337 5.42336e-20 0.02661 -3.98345e-22 9.52537e-38)
(27.5881 0.0199112 5.35761e-20 0.0248037 -2.91816e-22 9.23852e-38)
(27.3847 0.0581656 -5.22355e-20 0.0239534 2.4149e-22 8.9577e-38)
(26.9304 0.0881206 0 0.0268448 0 0)
(26.3592 0.0947125 0 0.0314125 0 0)
(25.7377 0.103304 -4.43226e-20 0.0308845 8.5574e-23 8.15021e-38)
(24.9709 0.127756 0 0.0281686 0 0)
(24.0413 0.153154 0 0.0267578 0 0)
(22.9595 0.172514 0 0.0266374 0 0)
(21.7823 0.183186 0 0.0269973 0 0)
(20.5511 0.185529 2.70288e-20 0.0262919 -4.07757e-24 6.91771e-38)
(19.3195 0.183326 2.38791e-20 0.0249765 -4.52098e-23 6.6877e-38)
(18.1216 0.175447 0 0.0248387 0 0)
(16.993 0.162443 1.87906e-20 0.0246814 -1.31506e-22 6.24338e-38)
(16.0093 0.137235 0 0.0288099 0 0)
(15.3566 0.0812851 0 0.0352262 0 0)