/*--------------------------------*- C++ -*----------------------------------*\
  =========                 |
  \\      /  F ield         | OpenFOAM: The Open Source CFD Toolbox
   \\    /   O peration     | Website:  https://openfoam.org
    \\  /    A nd           | Version:  6
     \\/     M anipulation  |
\*---------------------------------------------------------------------------*/
FoamFile
{
    version     2.0;
    format      ascii;
    class       volScalarField;
    location    "0.45";
    object      k;
}
// * * * * * * * * * * * * * * * * * * * * * * * * * * * * * * * * * * * * * //

dimensions      [0 2 -2 0 0 0 0];

internalField   nonuniform List<scalar> 
12225
(
0.000344576
0.00098849
0.000962917
0.000698896
0.000370972
0.000201285
0.000124859
9.58024e-05
8.8497e-05
8.90745e-05
9.92685e-05
0.00013413
0.00016011
0.000172209
0.000180178
0.000193145
0.000252112
0.000378564
2.49919e-05
7.83294e-05
0.000102439
9.88093e-05
7.88657e-05
5.90769e-05
4.91342e-05
4.46783e-05
4.29806e-05
4.26765e-05
4.31377e-05
4.55736e-05
5.39213e-05
7.17576e-05
8.68513e-05
9.43233e-05
9.7416e-05
0.000101953
2.02225e-05
1.89493e-05
1.89488e-05
1.90001e-05
1.88336e-05
1.86892e-05
1.87472e-05
1.89667e-05
1.90464e-05
1.91062e-05
1.92536e-05
1.96792e-05
2.09159e-05
2.4209e-05
2.71932e-05
2.88868e-05
2.94899e-05
2.97586e-05
2.08179e-05
2.14126e-05
2.10157e-05
2.02011e-05
1.98181e-05
1.95872e-05
1.91185e-05
1.78361e-05
1.73229e-05
1.75981e-05
1.94319e-05
2.56375e-05
3.05905e-05
3.47936e-05
3.79994e-05
3.92329e-05
3.85866e-05
3.35472e-05
2.09396e-05
2.0603e-05
2.0831e-05
2.11456e-05
2.1202e-05
2.11393e-05
2.10723e-05
2.11854e-05
2.22042e-05
2.73705e-05
4.98765e-05
0.000136703
0.000219472
0.000250634
0.000253775
0.000242667
0.000186312
0.000124485
2.05869e-05
2.09226e-05
2.12262e-05
2.16146e-05
2.17113e-05
2.16858e-05
2.16605e-05
2.17354e-05
2.2298e-05
2.48179e-05
3.50495e-05
7.32525e-05
0.000107391
0.000120235
0.000121723
0.000118267
9.84117e-05
7.32538e-05
3.05475e-05
2.51681e-05
2.42775e-05
2.40377e-05
2.33582e-05
2.18237e-05
2.11528e-05
2.10731e-05
2.13142e-05
2.27717e-05
2.92928e-05
5.17486e-05
6.75721e-05
7.18598e-05
7.16958e-05
6.74798e-05
5.41507e-05
4.40637e-05
3.73406e-05
3.60921e-05
2.65362e-05
2.37135e-05
2.19856e-05
2.097e-05
2.05762e-05
2.05434e-05
2.07473e-05
2.19003e-05
2.71423e-05
3.51378e-05
3.91611e-05
4.03278e-05
4.02991e-05
3.90654e-05
3.51076e-05
3.2645e-05
3.33108e-05
2.9459e-05
2.69337e-05
2.58782e-05
2.30644e-05
2.14788e-05
2.10836e-05
2.10827e-05
2.13171e-05
2.24096e-05
2.70289e-05
3.43837e-05
3.8268e-05
3.92728e-05
3.90889e-05
3.72968e-05
3.22045e-05
2.88709e-05
2.77919e-05
3.19254e-05
2.67301e-05
2.35108e-05
2.32494e-05
2.37307e-05
2.54584e-05
2.67271e-05
2.68119e-05
2.62876e-05
2.61028e-05
2.61419e-05
2.61182e-05
2.57691e-05
2.46974e-05
2.40396e-05
2.38277e-05
2.38305e-05
2.13832e-05
2.18471e-05
2.16884e-05
2.20856e-05
2.5317e-05
3.67163e-05
4.375e-05
4.32305e-05
3.53995e-05
2.68378e-05
2.33447e-05
2.21831e-05
2.19479e-05
2.20161e-05
2.26549e-05
2.44439e-05
2.57533e-05
2.64261e-05
2.21677e-05
2.46695e-05
2.41016e-05
2.4114e-05
2.77824e-05
4.13741e-05
4.71094e-05
4.5154e-05
3.45071e-05
2.63555e-05
2.29044e-05
2.17008e-05
2.14699e-05
2.15664e-05
2.23491e-05
2.38598e-05
2.49708e-05
2.56386e-05
2.10908e-05
2.1684e-05
2.21394e-05
2.51874e-05
4.41226e-05
7.10444e-05
7.42321e-05
6.0192e-05
3.78578e-05
2.74542e-05
2.32495e-05
2.17663e-05
2.13967e-05
2.13931e-05
2.1635e-05
2.26961e-05
2.41368e-05
2.53505e-05
2.05339e-05
2.12257e-05
2.14593e-05
2.20319e-05
2.41828e-05
2.50818e-05
2.46748e-05
2.29716e-05
2.1967e-05
2.16522e-05
2.161e-05
2.16456e-05
2.17614e-05
2.18571e-05
2.19454e-05
2.20863e-05
2.23806e-05
2.32336e-05
2.06027e-05
2.17557e-05
2.17896e-05
2.14938e-05
2.13302e-05
2.12337e-05
2.10115e-05
2.07067e-05
2.0535e-05
2.04765e-05
2.04703e-05
2.04837e-05
2.056e-05
2.0856e-05
2.12625e-05
2.15331e-05
2.16287e-05
2.16405e-05
2.01005e-05
2.03878e-05
2.0663e-05
2.09274e-05
2.10142e-05
2.10171e-05
2.096e-05
2.07493e-05
2.06415e-05
2.06373e-05
2.07166e-05
2.12219e-05
2.3182e-05
2.48644e-05
2.53774e-05
2.53484e-05
2.48704e-05
2.36692e-05
2.09499e-05
2.07145e-05
2.07432e-05
2.07561e-05
2.07962e-05
2.09945e-05
2.18697e-05
2.23239e-05
2.23509e-05
2.24145e-05
2.26331e-05
2.35679e-05
2.47147e-05
2.51054e-05
2.50576e-05
2.44846e-05
2.29215e-05
2.19172e-05
2.12431e-05
2.20494e-05
2.1611e-05
2.11404e-05
2.07001e-05
2.04798e-05
2.03973e-05
2.03485e-05
2.03278e-05
2.03317e-05
2.03816e-05
2.06148e-05
2.11462e-05
2.13709e-05
2.13683e-05
2.1192e-05
2.09006e-05
2.07625e-05
2.09205e-05
2.13313e-05
2.12056e-05
2.09329e-05
2.0842e-05
2.08016e-05
2.07167e-05
2.05814e-05
2.05188e-05
2.05163e-05
2.058e-05
2.10383e-05
2.19131e-05
2.22001e-05
2.21441e-05
2.16252e-05
2.09927e-05
2.0669e-05
2.00426e-05
2.01677e-05
2.05483e-05
2.20339e-05
2.37741e-05
2.42551e-05
2.41322e-05
2.33822e-05
2.27087e-05
2.24231e-05
2.23545e-05
2.2378e-05
2.26874e-05
2.32715e-05
2.34118e-05
2.32907e-05
2.27093e-05
2.22964e-05
2.13529e-05
2.12084e-05
2.18188e-05
2.46336e-05
2.64046e-05
2.66481e-05
2.56131e-05
2.26784e-05
2.16494e-05
2.14582e-05
2.14879e-05
2.16425e-05
2.19582e-05
2.25017e-05
2.30499e-05
2.35114e-05
2.43182e-05
2.65365e-05
2.8588e-05
2.66004e-05
2.24114e-05
2.24382e-05
2.66841e-05
3.41354e-05
3.42784e-05
2.8135e-05
2.35804e-05
2.23768e-05
2.21916e-05
2.22538e-05
2.25358e-05
2.30324e-05
2.39533e-05
2.57784e-05
3.06264e-05
4.11674e-05
2.13391e-05
2.40702e-05
2.77326e-05
2.79344e-05
2.70839e-05
2.45563e-05
2.2532e-05
2.18133e-05
2.14496e-05
2.13574e-05
2.14858e-05
2.16468e-05
2.17586e-05
2.19828e-05
2.25273e-05
2.29921e-05
2.34249e-05
2.41808e-05
2.12579e-05
2.20432e-05
2.22599e-05
2.28837e-05
2.57571e-05
2.72361e-05
2.63299e-05
2.32961e-05
2.18717e-05
2.1504e-05
2.14938e-05
2.15732e-05
2.18239e-05
2.24284e-05
2.31654e-05
2.39007e-05
2.51622e-05
2.86254e-05
2.03775e-05
2.63142e-05
3.1561e-05
2.97851e-05
2.43186e-05
2.16835e-05
2.07768e-05
2.05801e-05
2.06291e-05
2.11644e-05
2.41282e-05
2.82374e-05
2.92044e-05
2.8573e-05
2.58933e-05
2.3784e-05
2.26452e-05
2.21922e-05
2.11708e-05
3.20571e-05
3.48148e-05
3.11178e-05
2.47729e-05
2.29814e-05
2.19395e-05
2.14064e-05
2.13823e-05
2.1782e-05
2.3579e-05
2.49292e-05
2.53807e-05
2.53407e-05
2.47066e-05
2.4193e-05
2.41509e-05
2.41933e-05
2.01692e-05
2.06573e-05
2.0638e-05
2.03942e-05
2.02829e-05
2.01752e-05
1.99338e-05
1.92424e-05
1.85034e-05
1.82248e-05
1.81574e-05
1.80682e-05
1.78435e-05
1.70897e-05
1.58787e-05
1.5058e-05
1.46397e-05
1.45478e-05
2.00978e-05
1.25783e-05
9.86931e-06
1.19599e-05
1.6055e-05
1.76922e-05
1.78686e-05
1.73814e-05
1.54971e-05
1.4003e-05
1.33336e-05
1.31859e-05
1.32311e-05
1.34935e-05
1.43253e-05
1.55642e-05
1.66048e-05
1.71863e-05
2.17474e-05
6.11791e-05
9.4738e-05
9.39592e-05
7.49399e-05
5.57195e-05
4.52769e-05
3.87172e-05
3.49794e-05
3.36016e-05
3.35103e-05
3.41481e-05
3.73337e-05
4.72757e-05
5.56492e-05
5.96286e-05
6.06363e-05
6.05495e-05
0.000110408
0.000778311
0.000977064
0.000865809
0.000494038
0.000286226
0.000185305
0.000129702
0.000100943
9.05044e-05
8.94973e-05
9.37467e-05
0.000113237
0.000130129
0.000136589
0.000137448
0.000135786
0.000125115
0.215025
0.251751
0.241157
0.227862
0.214535
0.193459
0.176605
0.162479
0.14716
0.132729
0.124145
0.118335
0.114619
0.112374
0.110925
0.110166
0.109823
0.109593
0.109341
0.109386
0.10952
0.109805
0.110176
0.110564
0.111628
0.114337
0.117877
0.124073
0.134565
0.141778
0.157424
0.172709
0.182831
0.211736
0.23342
0.231902
0.212017
0.182956
0.17867
0.182495
0.186338
0.186127
0.185931
0.185368
0.183588
0.178805
0.167838
0.156095
0.148863
0.141791
0.133751
0.128894
0.128445
0.134239
0.167895
0.219282
0.279723
0.387934
0.379473
0.332812
0.296639
0.453235
0.208465
0.122917
0.0979528
0.0791416
0.0622253
0.0493317
0.0384976
0.0316809
0.026449
0.0238615
0.0223466
0.0218448
0.0219842
0.0223456
0.0224942
0.0226296
0.0226875
0.0227052
0.0226294
0.0224343
0.0222552
0.021997
0.0217283
0.0215211
0.0212294
0.0209306
0.0206909
0.0204275
0.0201661
0.0199286
0.0196964
0.0194792
0.019275
0.0190797
0.0188916
0.0187014
0.0185162
0.0183283
0.0181499
0.0179743
0.0178001
0.0176238
0.0174446
0.0172477
0.0170294
0.0167951
0.0165288
0.016266
0.0160183
0.0157959
0.0156106
0.0154341
0.0152425
0.0150818
0.0148858
0.0146941
0.0144547
0.0143917
0.0142151
0.0138316
0.0133054
0.0127326
0.0121951
0.0116899
0.0112501
0.0108859
0.0105641
0.010285
0.0100435
0.00983513
0.00965036
0.00947581
0.00931814
0.00917916
0.00906627
0.00895394
0.00886289
0.00882509
0.00878898
0.00872996
0.00871009
0.00874446
0.00913572
0.0105439
0.0137427
0.0212687
0.0639151
0.162194
0.186223
0.182819
0.179225
0.18143
0.193724
0.23031
0.263126
0.277941
0.279971
0.27281
0.23272
0.189758
0.176092
0.177434
0.200208
0.272841
0.292213
0.299642
0.321205
0.366872
0.402595
0.404106
0.342433
0.196963
0.110689
0.0853318
0.0821835
0.0827779
0.0776305
0.0575044
0.193479
0.213763
0.244591
0.215113
0.141648
0.0971368
0.0799052
0.0731778
0.0701002
0.069295
0.0695799
0.070484
0.0721405
0.0744615
0.0769962
0.0789877
0.0809168
0.0832652
0.0853395
0.0868276
0.0880105
0.0891057
0.0898113
0.090118
0.0900406
0.0898165
0.0898976
0.0902798
0.0915042
0.0938311
0.0963374
0.102197
0.109228
0.11796
0.134795
0.174598
0.188302
0.190473
0.192474
0.191527
0.179363
0.149759
0.135696
0.128717
0.122622
0.114407
0.106569
0.0990499
0.0932357
0.0888219
0.0882572
0.089107
0.0922666
0.0995294
0.117004
0.155091
0.19517
0.312152
0.347543
0.287918
0.264445
0.252875
0.0943732
0.0601084
0.0470085
0.0401067
0.0370409
0.03594
0.035776
0.0369731
0.0386072
0.0403728
0.0417503
0.043265
0.0442818
0.0449143
0.045233
0.0453851
0.0454283
0.0453785
0.0450513
0.0445844
0.0441116
0.043429
0.0426253
0.0418353
0.0407953
0.0396669
0.0386094
0.037409
0.036214
0.0351635
0.0341799
0.0333364
0.0326069
0.0318978
0.0312456
0.0305959
0.0300333
0.029471
0.0289628
0.0284665
0.0279795
0.0275474
0.027095
0.0266934
0.0262943
0.0259428
0.025597
0.0252156
0.0247801
0.0243837
0.0240659
0.0238507
0.0237064
0.0236184
0.0235552
0.0234936
0.0234122
0.0233003
0.0231649
0.0230331
0.0227905
0.0224297
0.0219288
0.0212236
0.0202875
0.019175
0.0180255
0.0169838
0.0160999
0.0153888
0.0148025
0.0141487
0.0133712
0.0126717
0.0120605
0.0112654
0.0104317
0.00993577
0.00958236
0.0087819
0.00770486
0.00734797
0.00703953
0.00651798
0.0066434
0.00882097
0.0210583
0.0674947
0.104807
0.105191
0.0997471
0.0976837
0.0997443
0.107565
0.130734
0.190953
0.220331
0.22215
0.216559
0.194567
0.138831
0.11348
0.116461
0.117117
0.10016
0.0901977
0.0992976
0.147547
0.206313
0.242418
0.244206
0.180415
0.0931776
0.0589482
0.04795
0.0404698
0.0350131
0.0330259
0.208118
0.239906
0.243206
0.18717
0.0974591
0.0694049
0.0649271
0.0655584
0.0681323
0.0738111
0.0812102
0.0903506
0.0987103
0.106076
0.112495
0.117542
0.122344
0.126029
0.12855
0.130385
0.131944
0.133029
0.133119
0.132874
0.132038
0.129986
0.126215
0.12203
0.114621
0.106812
0.101565
0.0967527
0.093272
0.0928381
0.0939029
0.0983378
0.109446
0.139212
0.170038
0.182452
0.18299
0.179604
0.163723
0.146757
0.134658
0.122071
0.107958
0.0961498
0.0889784
0.0847896
0.0821327
0.0812022
0.0813847
0.0829146
0.0887377
0.116471
0.298867
0.333543
0.262681
0.182114
0.143262
0.0746284
0.0469282
0.0410796
0.0400173
0.0402315
0.0426842
0.0475091
0.0525619
0.0550598
0.0561768
0.0565907
0.0566981
0.0566563
0.056213
0.0554942
0.0548747
0.0544096
0.0539878
0.0536536
0.0533898
0.0531898
0.0530253
0.0529336
0.0528906
0.0528507
0.0527353
0.05253
0.0522813
0.0519191
0.0513706
0.050557
0.0494664
0.0481414
0.046604
0.0449409
0.0432723
0.0414374
0.0396495
0.0378851
0.0362522
0.0349079
0.0336848
0.0326836
0.0317456
0.0309325
0.0302112
0.0295911
0.0290537
0.0286719
0.0283287
0.0279427
0.0274667
0.0269022
0.0263213
0.0257717
0.0253211
0.024988
0.024716
0.0244777
0.0242676
0.0241023
0.0240278
0.024054
0.0242478
0.0244528
0.0245327
0.0245193
0.0243233
0.0236913
0.0227819
0.0217509
0.0207713
0.019899
0.0190098
0.0181557
0.017381
0.0161904
0.0143692
0.0125106
0.0107154
0.00834633
0.00573702
0.00412857
0.00338897
0.00245311
0.00209993
0.00240076
0.00412398
0.0130598
0.0218993
0.021293
0.0192117
0.0186833
0.0192382
0.0221206
0.0310703
0.0486994
0.0704393
0.0976277
0.121781
0.131359
0.131178
0.119314
0.0822227
0.0596634
0.0552372
0.0587434
0.0756091
0.136154
0.213145
0.245868
0.225612
0.118779
0.0517468
0.0373782
0.0332991
0.0320877
0.0318655
0.030713
0.159923
0.273214
0.211831
0.0936717
0.0636241
0.0611732
0.0644515
0.0742658
0.0907565
0.105529
0.117355
0.124677
0.129957
0.133981
0.137374
0.140072
0.142528
0.144455
0.146197
0.148251
0.149616
0.15074
0.152036
0.153291
0.153982
0.154051
0.153746
0.152613
0.149879
0.145725
0.137021
0.122821
0.110662
0.101891
0.0974968
0.0971672
0.0978082
0.101631
0.114878
0.14947
0.171319
0.174693
0.17238
0.163032
0.145648
0.123551
0.103574
0.0915975
0.0859121
0.0832449
0.0819518
0.0817518
0.0818607
0.0827872
0.0891522
0.195059
0.310753
0.26125
0.14069
0.0955377
0.0615605
0.0453674
0.0415312
0.0419523
0.046297
0.0546597
0.0608993
0.0634406
0.0643557
0.0645466
0.0639499
0.0619819
0.0595298
0.0571429
0.0543314
0.0511002
0.0482857
0.0462518
0.044749
0.0438064
0.0431982
0.042934
0.042894
0.043517
0.0445514
0.0458438
0.0475251
0.0491891
0.0506883
0.0519225
0.0530119
0.0538933
0.0544797
0.0547749
0.0547802
0.0543968
0.0537679
0.0529113
0.0517879
0.0504006
0.0485042
0.0462641
0.0436094
0.0407994
0.0380653
0.0355169
0.0333339
0.0316092
0.0303163
0.0294239
0.0289816
0.0289362
0.0288512
0.0287229
0.0285007
0.0281883
0.0277176
0.0271073
0.0264369
0.0257276
0.0249833
0.0242343
0.023515
0.0229597
0.0225985
0.0225781
0.0232072
0.0242369
0.0249534
0.0253441
0.0254457
0.0253841
0.0249626
0.0239292
0.0228558
0.0218944
0.0210339
0.0202425
0.0196577
0.0192739
0.0189142
0.0185981
0.0183643
0.0179753
0.0166842
0.0151632
0.0137832
0.0103247
0.00798631
0.00825792
0.00851134
0.00829418
0.00808514
0.00806905
0.00818763
0.0085963
0.00990477
0.0136354
0.0249104
0.0351744
0.0411575
0.0539601
0.0830961
0.0941834
0.0904004
0.0781116
0.0774238
0.0847301
0.130909
0.208376
0.236963
0.234442
0.157429
0.0671932
0.0433433
0.0392436
0.0450972
0.0640483
0.0787979
0.0842177
0.184625
0.177031
0.0907607
0.0574188
0.058524
0.0693842
0.0925905
0.11214
0.121968
0.128031
0.132363
0.135897
0.139085
0.141712
0.144183
0.146331
0.148428
0.150371
0.152264
0.153917
0.15498
0.155776
0.157052
0.158033
0.158976
0.161074
0.165941
0.168051
0.167987
0.16706
0.164311
0.157126
0.144465
0.130301
0.115786
0.105457
0.102098
0.10277
0.106508
0.121293
0.148939
0.162602
0.16409
0.161924
0.151113
0.119094
0.0968664
0.087445
0.0842549
0.0837703
0.0860773
0.0881678
0.0876681
0.0860723
0.0996589
0.242098
0.267043
0.132997
0.0784026
0.0551484
0.0446353
0.0420603
0.0437025
0.0512992
0.0627131
0.066738
0.0680926
0.068291
0.0668084
0.0630955
0.0588459
0.0535508
0.0470738
0.0411989
0.0373215
0.0346055
0.0319914
0.0293955
0.0271576
0.0248464
0.0228474
0.0209891
0.0194109
0.0184823
0.0179847
0.0178279
0.0183618
0.0196841
0.0218414
0.0247069
0.0281331
0.0320924
0.0362876
0.0405227
0.0444509
0.0476913
0.0497658
0.0510735
0.0517386
0.0518687
0.0514502
0.0504665
0.0489546
0.0468938
0.0443667
0.041472
0.0383655
0.0352526
0.0323926
0.0300091
0.0282309
0.0272081
0.027056
0.027436
0.0280576
0.028413
0.0285203
0.0284629
0.0281802
0.0277776
0.0272991
0.026654
0.0257066
0.0242851
0.0227214
0.0214851
0.0208145
0.0207355
0.0210425
0.0224411
0.0242184
0.0253673
0.0259109
0.0260661
0.0260632
0.0259342
0.0253254
0.0235431
0.021789
0.0205393
0.0197071
0.0192391
0.0190306
0.0189205
0.0187858
0.0185428
0.0180002
0.0163208
0.0127837
0.0103581
0.00919648
0.00861124
0.00804078
0.0077647
0.00779383
0.00790656
0.00810221
0.00863838
0.0106382
0.0153299
0.0183227
0.0222084
0.0315556
0.0618643
0.0783684
0.0794222
0.0807837
0.0897473
0.14698
0.220956
0.233384
0.195564
0.099169
0.0528731
0.0452115
0.0576726
0.0861286
0.102543
0.107631
0.107649
0.118724
0.0838329
0.0468221
0.0527718
0.0767676
0.106455
0.118263
0.124393
0.12842
0.131823
0.134979
0.137969
0.140771
0.143182
0.145474
0.147933
0.150371
0.152622
0.154507
0.155618
0.15634
0.156192
0.15534
0.154807
0.155617
0.159472
0.167727
0.174408
0.177113
0.177287
0.176596
0.173283
0.167427
0.161029
0.147179
0.12858
0.115519
0.109707
0.1102
0.119094
0.144306
0.157524
0.159225
0.154233
0.125753
0.0968248
0.0871951
0.08605
0.0880916
0.0997026
0.11386
0.115421
0.11331
0.0925228
0.141183
0.228558
0.172754
0.0788719
0.0529505
0.0440458
0.0419123
0.0441172
0.0531812
0.0660381
0.0698492
0.0707166
0.0705171
0.0673818
0.062402
0.0551444
0.0457135
0.039595
0.037134
0.0358559
0.0345475
0.0324781
0.0299883
0.0270944
0.023754
0.0204293
0.0175318
0.0149101
0.0126573
0.0109039
0.0096144
0.00866611
0.00795607
0.00761458
0.00747866
0.00746466
0.00771544
0.00825139
0.00914877
0.0105352
0.012597
0.0156322
0.0197593
0.0244358
0.0291675
0.0336416
0.0375544
0.0406643
0.0426115
0.0432146
0.0428692
0.0412697
0.0388673
0.0360786
0.0332422
0.0307356
0.02853
0.0264612
0.0249258
0.0241516
0.0240228
0.0242527
0.0252401
0.0263624
0.0271429
0.0274133
0.0273673
0.027019
0.0264833
0.0256341
0.0240301
0.0218923
0.0202149
0.0194096
0.0192356
0.0192709
0.019509
0.0203599
0.0223982
0.0240577
0.025132
0.0257702
0.0260317
0.0260433
0.0259501
0.0254354
0.0234557
0.0211904
0.0198611
0.0191572
0.0187993
0.0186188
0.0185083
0.0182946
0.017739
0.0159831
0.0134404
0.0114471
0.00995711
0.0091347
0.0088529
0.00879179
0.00879632
0.00885607
0.00909069
0.00983559
0.0112412
0.0127876
0.0159879
0.0253847
0.0538074
0.0702699
0.0740384
0.0841893
0.147494
0.221165
0.220953
0.153373
0.0747703
0.0508816
0.0563609
0.0935019
0.110829
0.116208
0.115992
0.11507
0.07625
0.061428
0.0431193
0.081105
0.107933
0.117349
0.122123
0.125684
0.12852
0.131114
0.133778
0.136501
0.139284
0.142301
0.14515
0.148826
0.152134
0.154821
0.157146
0.157624
0.157397
0.156077
0.153132
0.149899
0.147016
0.147549
0.155914
0.168384
0.175184
0.177178
0.177051
0.175556
0.171492
0.162401
0.145401
0.127149
0.115314
0.111861
0.113161
0.126499
0.151271
0.157639
0.151621
0.11677
0.0907724
0.0862365
0.0883822
0.103224
0.129704
0.144472
0.147189
0.144613
0.123473
0.100536
0.17407
0.197646
0.0990435
0.0546161
0.0434894
0.0412177
0.0430896
0.0513968
0.0667865
0.0717719
0.0728352
0.0726325
0.0692969
0.0625781
0.0510227
0.0424363
0.0394847
0.0381561
0.0375017
0.0368993
0.0358968
0.0342455
0.0311093
0.0266264
0.0222357
0.0181275
0.0144107
0.0114241
0.00902468
0.00715831
0.00579307
0.0048243
0.00412242
0.00363995
0.00332782
0.00318745
0.00315357
0.00315326
0.0031779
0.00323659
0.00332477
0.00347733
0.00387277
0.00456574
0.00564155
0.00720493
0.0092062
0.0117745
0.0149404
0.0186975
0.022308
0.0252478
0.027176
0.0280206
0.027964
0.0270953
0.0261505
0.0251924
0.0241077
0.0231213
0.0225666
0.0224202
0.0224415
0.0226009
0.0232703
0.0243641
0.0249245
0.0250527
0.0250294
0.0248531
0.0241209
0.0216942
0.0190688
0.0177703
0.0175267
0.0175852
0.0178524
0.0182404
0.0186696
0.0195597
0.0208193
0.0222832
0.0237308
0.0248773
0.0255597
0.0257613
0.0257394
0.0255042
0.0243824
0.02172
0.0200115
0.0191135
0.0186738
0.0184671
0.0183094
0.0180247
0.0174012
0.0156937
0.0130371
0.0108523
0.00962792
0.00917565
0.00906967
0.00907084
0.00911984
0.00922105
0.00945964
0.0101293
0.0114352
0.0147107
0.0283684
0.0507044
0.057132
0.0686094
0.136052
0.214689
0.207972
0.127321
0.065699
0.0518014
0.0829961
0.112961
0.121459
0.121971
0.122726
0.129625
0.0685714
0.0582625
0.0577739
0.104155
0.113584
0.118395
0.120316
0.120743
0.121666
0.12299
0.125213
0.12819
0.133095
0.13903
0.144716
0.149185
0.153142
0.157014
0.161154
0.163687
0.164374
0.161329
0.155905
0.150072
0.144403
0.139751
0.138665
0.1447
0.155004
0.163051
0.166075
0.165427
0.16004
0.146098
0.128894
0.11666
0.112483
0.11332
0.12466
0.151258
0.157237
0.144627
0.0982187
0.0814165
0.082391
0.0947696
0.130851
0.153965
0.162067
0.163331
0.161674
0.148856
0.12091
0.122447
0.171849
0.152571
0.0655046
0.0449149
0.0411348
0.0413102
0.0469815
0.0637422
0.072539
0.074551
0.074654
0.0722213
0.0651683
0.0514699
0.0426046
0.0401821
0.0395689
0.0394296
0.039583
0.0397092
0.0391221
0.0363233
0.0308415
0.0250503
0.0202796
0.0160461
0.0125895
0.00970291
0.00735746
0.00550375
0.0040927
0.00304611
0.00230602
0.00181469
0.00150612
0.00133452
0.00124825
0.00120722
0.00119428
0.00119618
0.00118094
0.00112421
0.00111944
0.00117447
0.00130612
0.00155808
0.00191714
0.00242734
0.00303624
0.00390198
0.00509289
0.00669883
0.00849765
0.0103946
0.0122468
0.0141228
0.0159742
0.0178235
0.0195442
0.0205924
0.0210728
0.0212785
0.0214023
0.0215784
0.0220164
0.0228194
0.023143
0.0231457
0.0230103
0.0225258
0.0212905
0.0182839
0.0150335
0.0134154
0.0132089
0.0133642
0.0139237
0.0154
0.0166533
0.0175648
0.0185356
0.0193411
0.0198599
0.0207493
0.0223124
0.0239158
0.0249593
0.0253454
0.0253628
0.0252035
0.024408
0.0220117
0.0201674
0.0192148
0.0187322
0.018494
0.0182733
0.0178252
0.016539
0.0135069
0.0110077
0.00978231
0.00938895
0.00929615
0.00928351
0.00928828
0.00932128
0.00952731
0.0101071
0.0114128
0.0167385
0.0325124
0.0390026
0.0503274
0.115697
0.202206
0.196262
0.116847
0.0635471
0.0575021
0.100797
0.123319
0.127282
0.129265
0.136355
0.145591
0.06718
0.0609734
0.0862147
0.108358
0.113005
0.112139
0.108957
0.107652
0.106567
0.105324
0.106782
0.113268
0.122121
0.129944
0.136939
0.144064
0.151497
0.157721
0.162296
0.166624
0.170569
0.172112
0.171296
0.162795
0.151117
0.13913
0.132221
0.128523
0.127094
0.127978
0.13
0.129351
0.124242
0.117141
0.112169
0.111024
0.113454
0.128866
0.153687
0.156081
0.131177
0.0795827
0.0709366
0.0762733
0.107483
0.144162
0.163722
0.169587
0.170618
0.170335
0.16354
0.141145
0.121771
0.146811
0.161956
0.0969386
0.049574
0.040571
0.0395498
0.0429547
0.0555513
0.0711038
0.0756673
0.0764429
0.0755946
0.0702171
0.0570533
0.0441145
0.0406277
0.0400332
0.0401672
0.0416082
0.0425558
0.0425059
0.0408986
0.0361995
0.0297852
0.0245034
0.0202233
0.0162386
0.0129604
0.0100424
0.00761398
0.00563275
0.00409371
0.0029356
0.00209421
0.00150636
0.00110183
0.000825553
0.000643151
0.000534057
0.000473484
0.000444029
0.000424019
0.000400879
0.000384101
0.000390729
0.000407107
0.000440416
0.000503684
0.000612268
0.000744431
0.000952368
0.00128514
0.00193637
0.00294583
0.00436091
0.00588314
0.00757421
0.00944483
0.0113932
0.0135253
0.0157387
0.0175775
0.0187213
0.0193816
0.0201877
0.0211458
0.0218374
0.0220183
0.0219488
0.0215618
0.0203649
0.0170728
0.0127525
0.00910149
0.00705295
0.00667609
0.00681298
0.00732249
0.00858415
0.0112456
0.0138096
0.0157628
0.0171657
0.0182522
0.0190571
0.0195446
0.0201813
0.0217612
0.0235897
0.0246694
0.0251001
0.0251393
0.0249946
0.0243253
0.0222305
0.020412
0.01947
0.0190656
0.0187979
0.0182677
0.0166337
0.0131863
0.0107944
0.00981435
0.00953494
0.00947083
0.00943375
0.00941734
0.00946703
0.00972195
0.0103109
0.0124788
0.0208432
0.0260695
0.0356659
0.0917671
0.187301
0.187499
0.117614
0.0641283
0.0685765
0.112221
0.130572
0.133754
0.139393
0.147938
0.153903
0.0669152
0.0678568
0.0947158
0.106129
0.104921
0.0981254
0.0888649
0.0813347
0.0803244
0.0838402
0.0905335
0.0977108
0.106242
0.115224
0.123968
0.133802
0.14283
0.151513
0.159493
0.165938
0.171398
0.175316
0.17775
0.178801
0.17604
0.164517
0.146414
0.131429
0.124101
0.119583
0.116747
0.114412
0.111663
0.109997
0.110118
0.114083
0.13242
0.151968
0.153392
0.11926
0.0708604
0.0610398
0.0684267
0.105784
0.144585
0.161823
0.168086
0.168979
0.170894
0.169671
0.155634
0.134372
0.129694
0.14676
0.140466
0.0646545
0.0422425
0.0388014
0.0396956
0.0464783
0.0641522
0.0750685
0.0776057
0.0777939
0.0754159
0.0666092
0.050363
0.0413516
0.0395957
0.0395641
0.0410458
0.0439813
0.044718
0.0443861
0.0417649
0.0361542
0.0302384
0.0264311
0.023353
0.0201355
0.0170163
0.0138794
0.0108844
0.00818706
0.00589613
0.00408934
0.00274683
0.00181889
0.0012122
0.000833175
0.000597033
0.00044383
0.000339961
0.000267759
0.000222376
0.00019502
0.000180502
0.000177455
0.000178722
0.000180225
0.000184716
0.000198455
0.000223398
0.000265306
0.000343902
0.000509262
0.000867707
0.00163751
0.00274627
0.00414435
0.00595303
0.00816984
0.010587
0.0128338
0.0145104
0.0156774
0.0167734
0.0179324
0.0186605
0.0187668
0.0186547
0.0181791
0.0169048
0.0134791
0.00917536
0.00592592
0.00375609
0.00255617
0.00217258
0.0021778
0.00231749
0.00270869
0.00359166
0.00588676
0.00938838
0.0125823
0.0150903
0.0168751
0.0178746
0.0183081
0.0187127
0.0195391
0.0216965
0.0236343
0.0246192
0.024988
0.0250177
0.0248737
0.0242241
0.0222289
0.0207137
0.0200856
0.0196305
0.0186685
0.0158385
0.0124665
0.0105652
0.00986291
0.00965819
0.00959373
0.00954443
0.00953908
0.00961275
0.00984627
0.0106809
0.0141994
0.017591
0.0248173
0.0685938
0.170924
0.179275
0.12125
0.0668738
0.0761375
0.118605
0.134956
0.141188
0.147981
0.154812
0.158864
0.0669758
0.0712593
0.0949818
0.0987245
0.0906
0.0735065
0.0686467
0.0689208
0.0734143
0.0803921
0.0860113
0.089903
0.0938118
0.0996703
0.10661
0.112513
0.119877
0.129748
0.140268
0.150608
0.161259
0.169978
0.177167
0.181706
0.183889
0.184488
0.179478
0.165404
0.143139
0.130818
0.122393
0.116894
0.112886
0.111816
0.115375
0.13283
0.146299
0.14927
0.121859
0.070948
0.0566628
0.0590999
0.0800809
0.127091
0.153785
0.159576
0.158779
0.158837
0.163204
0.158987
0.141433
0.134511
0.137016
0.140994
0.0970763
0.0486328
0.0386405
0.0376144
0.0407618
0.0520376
0.0701189
0.0776685
0.0792979
0.079227
0.0759596
0.0660845
0.0483316
0.0399622
0.0385981
0.0389493
0.0419063
0.0457019
0.0464149
0.0459401
0.0429377
0.037576
0.0344133
0.033407
0.0323355
0.0300904
0.0268492
0.0232931
0.0190971
0.0149588
0.0110573
0.0077579
0.00516117
0.00328197
0.00202197
0.00123713
0.000772785
0.000505414
0.000350443
0.000257566
0.000197784
0.000158309
0.000134153
0.000122716
0.000119493
0.000117483
0.00011408
0.000110821
0.000109593
0.00011244
0.000124816
0.00015707
0.000238279
0.000417968
0.000644757
0.000927511
0.00140755
0.00243777
0.00440885
0.00673523
0.00895454
0.0109961
0.0124453
0.0129907
0.0130198
0.0128794
0.0123378
0.010991
0.00759905
0.00463837
0.0028437
0.00180576
0.00119391
0.000820709
0.000655752
0.00063836
0.000660496
0.000737847
0.000913275
0.00128456
0.00206954
0.00393309
0.00787735
0.0116471
0.0142586
0.0159336
0.0168599
0.0173201
0.0179955
0.0197577
0.0223813
0.0239756
0.0247021
0.0249219
0.0249145
0.024715
0.0237421
0.0222029
0.0214575
0.0205629
0.0182691
0.0145849
0.0118326
0.0104515
0.00994045
0.00979448
0.00970767
0.00964165
0.00964767
0.00971294
0.00996819
0.0109408
0.0128596
0.0178184
0.0495943
0.151422
0.171581
0.126853
0.0737275
0.0823766
0.122625
0.138674
0.147185
0.153137
0.158269
0.160429
0.0671611
0.0737899
0.0897251
0.0882058
0.0717346
0.0633016
0.0629689
0.0665361
0.0745409
0.0794018
0.0798637
0.0784038
0.0747851
0.071377
0.0698717
0.0695267
0.0724777
0.0776249
0.0857458
0.0972196
0.11311
0.131491
0.15101
0.166421
0.179959
0.186752
0.189372
0.189404
0.181842
0.163744
0.145907
0.137492
0.127777
0.124281
0.127749
0.138178
0.145281
0.128304
0.092535
0.0592519
0.0542593
0.0602403
0.086632
0.132269
0.148636
0.151165
0.1475
0.146448
0.147643
0.143534
0.136965
0.135193
0.136033
0.125459
0.0641562
0.0410052
0.0367271
0.0367307
0.0421792
0.0560204
0.0734767
0.0795191
0.0808982
0.0807744
0.0773543
0.0671264
0.0490093
0.0389491
0.0373957
0.0381424
0.0424111
0.0471452
0.0480209
0.0475901
0.0444522
0.0424939
0.0433652
0.0456949
0.0463711
0.0454623
0.0419598
0.0380097
0.0323451
0.0263842
0.0202742
0.0147123
0.010037
0.00645798
0.00394372
0.00232055
0.00134263
0.000782956
0.000472123
0.000302475
0.00021016
0.000158546
0.000128562
0.000110653
0.000101774
9.91985e-05
9.66472e-05
9.27491e-05
8.77784e-05
8.30402e-05
8.06377e-05
8.17977e-05
9.15581e-05
0.000121308
0.00015857
0.000197926
0.000263482
0.000399766
0.000682851
0.0012854
0.00228453
0.00331573
0.00398909
0.00422726
0.00422917
0.00412009
0.00376393
0.00283145
0.00187306
0.00119709
0.00076863
0.000510433
0.000356214
0.000257538
0.000202461
0.000189292
0.000191961
0.000205258
0.000241144
0.000313377
0.000460944
0.000783938
0.00149698
0.00305592
0.00662726
0.0102099
0.0128554
0.0146205
0.0155658
0.0163073
0.0179125
0.0209131
0.0230591
0.0242305
0.0247058
0.024786
0.0247227
0.0243074
0.023604
0.0227019
0.0205274
0.0167099
0.0133422
0.011243
0.0103211
0.0100009
0.00989096
0.00983391
0.00971889
0.00968614
0.00973044
0.00998404
0.0107847
0.0138123
0.0357496
0.129381
0.163919
0.133787
0.0820682
0.0873039
0.122473
0.140877
0.151121
0.155992
0.159416
0.160344
0.0672547
0.07415
0.0841342
0.078941
0.0632263
0.059711
0.0615329
0.067277
0.0687368
0.0669288
0.0567906
0.0452574
0.0413012
0.0394348
0.0383966
0.0378681
0.037584
0.0374343
0.0377384
0.038727
0.0426179
0.0500443
0.0644368
0.0889754
0.118658
0.151082
0.175606
0.188448
0.193488
0.191214
0.178122
0.155129
0.142847
0.137155
0.135612
0.136351
0.143186
0.123506
0.0877376
0.0564618
0.0517275
0.05633
0.0783407
0.121674
0.140882
0.143731
0.141833
0.139538
0.139457
0.13757
0.135436
0.134073
0.128895
0.0885651
0.0482115
0.0370991
0.0351798
0.0367245
0.0444591
0.0602863
0.0757977
0.0812982
0.0824524
0.0823447
0.079334
0.0698657
0.0521994
0.0395258
0.037155
0.0376878
0.0420817
0.0482951
0.0496102
0.0493351
0.048222
0.0491129
0.0550418
0.060908
0.0631116
0.0637146
0.0606628
0.0563061
0.0498528
0.042369
0.0341221
0.0258952
0.0184134
0.0122086
0.00757371
0.00443691
0.00249346
0.00137226
0.000758409
0.000434294
0.000267078
0.00017994
0.000134149
0.000110179
9.70981e-05
9.09023e-05
8.94818e-05
8.72293e-05
8.35805e-05
7.86067e-05
7.30695e-05
6.83098e-05
6.57013e-05
6.57149e-05
6.88332e-05
7.40164e-05
8.18183e-05
9.74353e-05
0.00013142
0.000220393
0.000416568
0.000612758
0.000744812
0.000793655
0.000794825
0.000777495
0.000717802
0.000557084
0.000393629
0.000274985
0.000195037
0.000143789
0.000112305
9.1995e-05
7.8566e-05
7.3263e-05
7.31596e-05
7.48015e-05
8.00337e-05
9.19319e-05
0.000117788
0.000174075
0.000303175
0.000621918
0.00141275
0.00346139
0.00644725
0.00909638
0.0110299
0.012205
0.0129899
0.0143458
0.0179125
0.0214721
0.0233482
0.0242478
0.0246805
0.0247813
0.0247467
0.0244745
0.0232131
0.0193062
0.0151042
0.0122351
0.0107782
0.0102177
0.010031
0.00995885
0.0098626
0.00962016
0.00951376
0.00956143
0.00987879