/*--------------------------------*- C++ -*----------------------------------*\
  =========                 |
  \\      /  F ield         | OpenFOAM: The Open Source CFD Toolbox
   \\    /   O peration     | Website:  https://openfoam.org
    \\  /    A nd           | Version:  6
     \\/     M anipulation  |
\*---------------------------------------------------------------------------*/
FoamFile
{
    version     2.0;
    format      ascii;
    class       volScalarField;
    location    "0.45";
    object      k_0;
}
// * * * * * * * * * * * * * * * * * * * * * * * * * * * * * * * * * * * * * //

dimensions      [0 2 -2 0 0 0 0];

internalField   nonuniform List<scalar> 
12225
(
0.000377065
0.000997472
0.000960888
0.00067506
0.000356167
0.000193981
0.000121812
9.48822e-05
8.84842e-05
8.9411e-05
0.000101048
0.000137103
0.000161887
0.000173387
0.000181451
0.000195174
0.000257699
0.000387917
2.53194e-05
7.97162e-05
0.000101109
9.6668e-05
7.61416e-05
5.75395e-05
4.83525e-05
4.42914e-05
4.27878e-05
4.25645e-05
4.3126e-05
4.58583e-05
5.53528e-05
7.33916e-05
8.79959e-05
9.48866e-05
9.78769e-05
0.00010243
2.02307e-05
1.90156e-05
1.89022e-05
1.89107e-05
1.87335e-05
1.86226e-05
1.8713e-05
1.89403e-05
1.90169e-05
1.90829e-05
1.92482e-05
1.97183e-05
2.11194e-05
2.45361e-05
2.73976e-05
2.89589e-05
2.94749e-05
2.96946e-05
2.0879e-05
2.14145e-05
2.0961e-05
2.01659e-05
1.98103e-05
1.95797e-05
1.90775e-05
1.77875e-05
1.73609e-05
1.77003e-05
1.98239e-05
2.62834e-05
3.09912e-05
3.49849e-05
3.78861e-05
3.87906e-05
3.78278e-05
3.23376e-05
2.07684e-05
2.05799e-05
2.08579e-05
2.11589e-05
2.12057e-05
2.11343e-05
2.1074e-05
2.12143e-05
2.23981e-05
2.83132e-05
5.43926e-05
0.000147683
0.000225544
0.000252702
0.000254296
0.000239705
0.000177175
0.000118037
2.0526e-05
2.0882e-05
2.12493e-05
2.16295e-05
2.1714e-05
2.16837e-05
2.16615e-05
2.17524e-05
2.23996e-05
2.52572e-05
3.70411e-05
7.78132e-05
0.000109792
0.000120981
0.000121845
0.000117342
9.48996e-05
7.06282e-05
2.99131e-05
2.4734e-05
2.42171e-05
2.402e-05
2.32642e-05
2.17401e-05
2.11253e-05
2.10711e-05
2.1364e-05
2.30381e-05
3.06109e-05
5.41085e-05
6.8581e-05
7.21102e-05
7.16775e-05
6.64084e-05
5.26176e-05
4.30504e-05
3.81486e-05
3.51966e-05
2.59862e-05
2.35109e-05
2.18852e-05
2.09168e-05
2.05597e-05
2.05421e-05
2.07877e-05
2.21145e-05
2.79563e-05
3.57312e-05
3.94145e-05
4.03792e-05
4.02704e-05
3.87069e-05
3.46691e-05
3.24125e-05
3.29671e-05
2.87109e-05
2.67063e-05
2.57089e-05
2.28714e-05
2.1405e-05
2.10639e-05
2.10766e-05
2.13545e-05
2.26003e-05
2.77615e-05
3.49512e-05
3.85209e-05
3.93354e-05
3.90573e-05
3.68541e-05
3.16822e-05
2.85696e-05
2.73541e-05
3.12575e-05
2.6159e-05
2.33992e-05
2.32412e-05
2.38028e-05
2.55561e-05
2.67251e-05
2.67574e-05
2.62289e-05
2.60988e-05
2.61478e-05
2.61117e-05
2.5685e-05
2.4591e-05
2.39858e-05
2.38049e-05
2.38155e-05
2.14791e-05
2.18543e-05
2.1674e-05
2.21474e-05
2.58212e-05
3.75799e-05
4.37368e-05
4.2782e-05
3.42971e-05
2.62977e-05
2.31366e-05
2.21194e-05
2.19374e-05
2.2036e-05
2.28197e-05
2.46417e-05
2.5875e-05
2.64843e-05
2.2388e-05
2.47521e-05
2.40622e-05
2.41218e-05
2.83659e-05
4.22158e-05
4.70673e-05
4.45645e-05
3.34329e-05
2.58551e-05
2.2697e-05
2.1636e-05
2.146e-05
2.15944e-05
2.25196e-05
2.40154e-05
2.50809e-05
2.57059e-05
2.11803e-05
2.17178e-05
2.21844e-05
2.56301e-05
4.63872e-05
7.21692e-05
7.40225e-05
5.80653e-05
3.65002e-05
2.68289e-05
2.29959e-05
2.16815e-05
2.13792e-05
2.13951e-05
2.16976e-05
2.28846e-05
2.43076e-05
2.54723e-05
2.05904e-05
2.12548e-05
2.14803e-05
2.21072e-05
2.43353e-05
2.51146e-05
2.45926e-05
2.28336e-05
2.19155e-05
2.16415e-05
2.1613e-05
2.1659e-05
2.17775e-05
2.187e-05
2.19611e-05
2.21141e-05
2.24508e-05
2.33453e-05
2.06795e-05
2.17938e-05
2.17908e-05
2.14692e-05
2.13217e-05
2.12237e-05
2.09888e-05
2.06881e-05
2.05266e-05
2.04746e-05
2.04704e-05
2.04865e-05
2.05732e-05
2.08942e-05
2.12872e-05
2.15393e-05
2.1622e-05
2.16341e-05
2.00934e-05
2.04064e-05
2.06815e-05
2.09401e-05
2.10176e-05
2.10172e-05
2.09486e-05
2.07319e-05
2.06357e-05
2.06354e-05
2.07306e-05
2.13183e-05
2.3386e-05
2.49335e-05
2.53554e-05
2.52968e-05
2.47204e-05
2.35245e-05
2.03997e-05
2.06709e-05
2.07344e-05
2.0758e-05
2.08007e-05
2.10267e-05
2.19328e-05
2.23196e-05
2.23416e-05
2.24117e-05
2.26623e-05
2.36835e-05
2.47662e-05
2.50923e-05
2.50146e-05
2.43271e-05
2.27631e-05
2.18247e-05
2.13478e-05
2.20744e-05
2.1563e-05
2.11088e-05
2.06736e-05
2.04687e-05
2.03922e-05
2.03458e-05
2.03275e-05
2.03334e-05
2.03898e-05
2.06546e-05
2.11697e-05
2.13639e-05
2.13508e-05
2.11507e-05
2.08761e-05
2.07502e-05
2.09942e-05
2.13432e-05
2.11868e-05
2.09203e-05
2.08364e-05
2.07955e-05
2.07053e-05
2.05713e-05
2.0515e-05
2.05153e-05
2.05926e-05
2.11179e-05
2.19498e-05
2.21846e-05
2.21001e-05
2.15236e-05
2.09353e-05
2.06396e-05
2.00477e-05
2.01794e-05
2.05944e-05
2.21774e-05
2.38522e-05
2.42666e-05
2.41036e-05
2.33039e-05
2.26692e-05
2.24089e-05
2.23525e-05
2.23848e-05
2.27428e-05
2.3292e-05
2.33971e-05
2.32359e-05
2.26256e-05
2.22635e-05
2.13558e-05
2.11505e-05
2.19014e-05
2.48448e-05
2.6456e-05
2.66106e-05
2.53238e-05
2.25008e-05
2.15976e-05
2.14495e-05
2.14956e-05
2.16702e-05
2.20037e-05
2.2558e-05
2.30916e-05
2.35688e-05
2.44612e-05
2.6966e-05
2.84698e-05
2.59596e-05
2.22209e-05
2.24147e-05
2.71916e-05
3.41926e-05
3.39205e-05
2.7392e-05
2.33521e-05
2.23217e-05
2.21856e-05
2.22711e-05
2.25858e-05
2.31131e-05
2.41048e-05
2.61026e-05
3.16892e-05
4.23175e-05
2.09233e-05
2.42022e-05
2.76247e-05
2.77063e-05
2.68385e-05
2.43228e-05
2.2413e-05
2.17459e-05
2.1403e-05
2.13541e-05
2.15068e-05
2.16605e-05
2.17748e-05
2.20231e-05
2.25739e-05
2.30235e-05
2.34754e-05
2.42918e-05
2.134e-05
2.20731e-05
2.227e-05
2.29524e-05
2.58834e-05
2.71189e-05
2.60433e-05
2.30679e-05
2.17989e-05
2.14892e-05
2.14899e-05
2.15797e-05
2.1844e-05
2.24737e-05
2.32023e-05
2.39663e-05
2.53525e-05
2.90797e-05
2.04665e-05
2.68256e-05
3.17182e-05
2.94596e-05
2.39807e-05
2.15404e-05
2.07313e-05
2.05715e-05
2.0639e-05
2.1267e-05
2.45523e-05
2.84116e-05
2.91458e-05
2.8338e-05
2.55377e-05
2.35775e-05
2.25383e-05
2.21529e-05
2.13201e-05
3.26264e-05
3.47e-05
3.05484e-05
2.44586e-05
2.28404e-05
2.18426e-05
2.13883e-05
2.13865e-05
2.18732e-05
2.37526e-05
2.50001e-05
2.53856e-05
2.53093e-05
2.46143e-05
2.41676e-05
2.41448e-05
2.41892e-05
2.01707e-05
2.06772e-05
2.06453e-05
2.03893e-05
2.02846e-05
2.01697e-05
1.99116e-05
1.91904e-05
1.84922e-05
1.82453e-05
1.81819e-05
1.80855e-05
1.78379e-05
1.70051e-05
1.58131e-05
1.50371e-05
1.46632e-05
1.46028e-05
2.01019e-05
1.25433e-05
1.00731e-05
1.22411e-05
1.62335e-05
1.77338e-05
1.78533e-05
1.72659e-05
1.52983e-05
1.38875e-05
1.32757e-05
1.31564e-05
1.32148e-05
1.35084e-05
1.44157e-05
1.56491e-05
1.66554e-05
1.7205e-05
2.20523e-05
6.30429e-05
9.37725e-05
9.19184e-05
7.20422e-05
5.4161e-05
4.43625e-05
3.81442e-05
3.46564e-05
3.34447e-05
3.3408e-05
3.41702e-05
3.7837e-05
4.82207e-05
5.6137e-05
5.97486e-05
6.0566e-05
6.04317e-05
0.000118916
0.000817999
0.000984799
0.000848967
0.000471783
0.000276177
0.000180137
0.000126892
9.96763e-05
9.0227e-05
8.95963e-05
9.46795e-05
0.000115313
0.000131262
0.000137079
0.000137676
0.000135636
0.000123548
0.214954
0.251808
0.241345
0.228077
0.214844
0.193766
0.176843
0.16265
0.147258
0.132842
0.124257
0.118446
0.114744
0.112505
0.111058
0.110305
0.109956
0.109703
0.109439
0.109483
0.109618
0.109907
0.110265
0.110654
0.111734
0.114482
0.118029
0.124403
0.134796
0.142039
0.157995
0.172916
0.183194
0.212936
0.233566
0.231788
0.210891
0.182508
0.178658
0.182654
0.186285
0.186026
0.185865
0.18533
0.183528
0.178661
0.167623
0.155931
0.148751
0.141678
0.133665
0.128876
0.128465
0.13431
0.168043
0.219443
0.28018
0.388597
0.379422
0.332229
0.295721
0.451701
0.208196
0.122868
0.0979671
0.0791689
0.0622306
0.0493731
0.0385401
0.031699
0.0264436
0.023845
0.0223184
0.0218125
0.0219327
0.0222988
0.0224449
0.0225801
0.0226393
0.0226587
0.0225916
0.0224013
0.0222252
0.0219744
0.021707
0.021501
0.021215
0.0209151
0.0206752
0.0204147
0.0201543
0.0199173
0.0196859
0.019469
0.0192652
0.0190703
0.0188829
0.0186934
0.0185087
0.0183211
0.0181428
0.0179674
0.0177934
0.0176174
0.017438
0.0172407
0.0170222
0.0167876
0.0165211
0.0162584
0.0160112
0.0157891
0.0156039
0.0154272
0.0152352
0.0150741
0.0148777
0.0146855
0.0144455
0.0143797
0.0141996
0.0138128
0.0132846
0.0127123
0.0121765
0.0116738
0.0112379
0.010876
0.0105561
0.0102789
0.0100388
0.00983162
0.00964763
0.00947365
0.00931654
0.00917815
0.00906562
0.0089535
0.00886317
0.00882601
0.00878979
0.00873094
0.00871186
0.0087474
0.00914699
0.0105713
0.0137912
0.0214088
0.0649264
0.162874
0.186343
0.182844
0.179315
0.181562
0.193991
0.230742
0.263403
0.278079
0.280044
0.272763
0.23238
0.189574
0.176077
0.177507
0.20069
0.273456
0.292494
0.300116
0.322112
0.367828
0.40293
0.403835
0.34021
0.195157
0.11004
0.0851389
0.0821127
0.0827369
0.0776461
0.0575502
0.193454
0.213847
0.244709
0.215135
0.141659
0.0971122
0.0798719
0.0731227
0.0700364
0.069252
0.0695414
0.070451
0.0721195
0.0744619
0.0769859
0.0789623
0.0809111
0.0832627
0.0853161
0.0867901
0.0879784
0.0890797
0.0897832
0.0900894
0.0900114
0.0898025
0.0898925
0.0902913
0.0915839
0.0938907
0.096429
0.102398
0.109382
0.118274
0.135696
0.175699
0.188402
0.190643
0.192563
0.191459
0.178492
0.149027
0.135386
0.128495
0.122371
0.114135
0.106318
0.0988297
0.0930459
0.0886842
0.0881559
0.0890245
0.09222
0.0995456
0.117173
0.155667
0.195777
0.313392
0.346992
0.287027
0.263628
0.25221
0.094301
0.0600889
0.0469849
0.0400365
0.0369483
0.0358335
0.0356591
0.036816
0.0384235
0.0401832
0.0415565
0.0430756
0.0441296
0.0447956
0.0451308
0.0452977
0.0453461
0.0453087
0.0449979
0.0445282
0.0440561
0.0433778
0.0425642
0.0417755
0.0407417
0.0396053
0.0385435
0.0373442
0.0361535
0.0351089
0.0341342
0.0333004
0.0325748
0.0318679
0.0312184
0.0305711
0.030011
0.0294516
0.0289458
0.0284517
0.0279657
0.0275346
0.0270836
0.0266832
0.026285
0.025934
0.0255867
0.025203
0.0247664
0.0243711
0.0240557
0.0238427
0.0236999
0.0236133
0.0235511
0.02349
0.0234088
0.0232969
0.023161
0.0230262
0.0227805
0.0224156
0.0219082
0.0211948
0.0202511
0.0191356
0.0179893
0.0169546
0.016078
0.0153726
0.0147883
0.0141332
0.0133557
0.0126583
0.012046
0.0112484
0.0104179
0.00992726
0.00957174
0.00876154
0.00769084
0.00734148
0.00702953
0.00651287
0.00664797
0.0088695
0.021306
0.0680919
0.104914
0.105209
0.0997789
0.0978365
0.0999512
0.107881
0.131439
0.191736
0.220477
0.222114
0.216411
0.194052
0.138214
0.113313
0.116455
0.116997
0.0999136
0.0902818
0.0997406
0.148754
0.207185
0.242719
0.243954
0.179014
0.0923053
0.0586186
0.0477875
0.0403615
0.0349327
0.0329561
0.207851
0.240455
0.243452
0.186775
0.0971492
0.0692586
0.0648271
0.0654683
0.0680565
0.0737614
0.0811567
0.0903145
0.0986823
0.106053
0.112463
0.117515
0.122331
0.126007
0.128505
0.130328
0.131892
0.132946
0.133018
0.132758
0.131889
0.129746
0.125989
0.121715
0.11421
0.106506
0.101326
0.0964858
0.0931273
0.0927772
0.0939195
0.0985226
0.110021
0.140709
0.170928
0.182676
0.183035
0.179334
0.162888
0.146206
0.134168
0.121518
0.10741
0.0957392
0.0887245
0.0846368
0.0820558
0.0811708
0.0813685
0.0829363
0.0888503
0.116994
0.299943
0.333451
0.260991
0.181285
0.142823
0.0744425
0.0468125
0.0409412
0.0398656
0.040036
0.0424326
0.0471701
0.052297
0.0549618
0.0561506
0.056604
0.0567294
0.0567074
0.0563112
0.0556117
0.054986
0.054518
0.054097
0.0537601
0.0534931
0.0532896
0.0531196
0.0530168
0.0529628
0.0529149
0.0527917
0.0525766
0.0523194
0.0519522
0.0513809
0.0505464
0.0494348
0.0480885
0.0465399
0.0448685
0.0431949
0.0413552
0.0395637
0.0378094
0.0361881
0.0348584
0.0336492
0.0326528
0.0317205
0.0309126
0.0301957
0.0295787
0.0290457
0.0286672
0.0283219
0.0279317
0.0274514
0.026884
0.0263024
0.0257546
0.0253082
0.0249783
0.0247076
0.0244704
0.0242616
0.0241001
0.0240304
0.0240618
0.0242631
0.0244616
0.0245377
0.0245203
0.024312
0.023665
0.0227531
0.0217232
0.0207488
0.0198799
0.0189926
0.0181413
0.0173641
0.0161628
0.0143355
0.0124785
0.0106791
0.00830118
0.00569869
0.00410957
0.00337472
0.00244108
0.00209993
0.00240804
0.00415787
0.0131986
0.0218875
0.0212651
0.0191983
0.0187073
0.0192885
0.0222582
0.0313918
0.0490337
0.0708119
0.0980827
0.122098
0.131454
0.131184
0.118921
0.0816555
0.0594425
0.0552153
0.058828
0.076092
0.137601
0.214165
0.246036
0.224627
0.117186
0.0513241
0.0372432
0.0332209
0.0320404
0.0318583
0.0307305
0.159809
0.273089
0.210963
0.0932802
0.063416
0.0610401
0.0643311
0.0741186
0.0906029
0.105401
0.117272
0.124614
0.12991
0.133951
0.137353
0.140062
0.142525
0.144447
0.146204
0.148261
0.14961
0.150743
0.152059
0.153311
0.15397
0.15402
0.153689
0.152488
0.149685
0.145437
0.136394
0.122166
0.110215
0.10159
0.0974156
0.0971622
0.09788
0.101944
0.115986
0.150994
0.171825
0.174707
0.172184
0.162305
0.144669
0.122477
0.102736
0.0911115
0.0856632
0.0831277
0.0819231
0.0817679
0.0818898
0.082832
0.0892696
0.195839
0.310661
0.260086
0.139891
0.0951127
0.061326
0.0452035
0.0413714
0.041763
0.0460361
0.0543638
0.0607933
0.0634271
0.0643934
0.0646174
0.0641153
0.0622454
0.0598134
0.057458
0.0547368
0.0515504
0.048713
0.0466529
0.0451251
0.044175
0.0435665
0.0432987
0.0432536
0.0438528
0.0448736
0.0461495
0.0478035
0.0494323
0.0508805
0.0520969
0.0531704
0.0540326
0.0545943
0.0548754
0.0548553
0.054453
0.0538093
0.0529415
0.0518076
0.050392
0.0484683
0.0462042
0.0435311
0.0407171
0.0379835
0.0354414
0.0332752
0.0315688
0.0302937
0.0294133
0.0289861
0.028943
0.0288565
0.0287249
0.0284984
0.0281801
0.0277015
0.0270848
0.0264109
0.0256985
0.0249516
0.0242029
0.0234895
0.0229434
0.0225933
0.0225905
0.0232554
0.0242748
0.0249779
0.0253552
0.0254483
0.0253803
0.0249379
0.023897
0.0228285
0.0218715
0.0210142
0.0202265
0.0196471
0.0192665
0.0189078
0.0185935
0.0183591
0.0179642
0.0166527
0.0151382
0.0137419
0.010266
0.00797633
0.00826054
0.00850327
0.00828763
0.00808526
0.0080728
0.00819695
0.00861633
0.00995404
0.0137624
0.0251758
0.0352937
0.0412957
0.0543794
0.0835164
0.0942397
0.0902614
0.0780039
0.0774279
0.0849504
0.13209
0.209174
0.237208
0.23412
0.155593
0.0664604
0.0432407
0.0392352
0.0452563
0.0643636
0.0791425
0.0845668
0.184537
0.176751
0.0904437
0.0572408
0.0583527
0.0691627
0.0923201
0.112016
0.121915
0.128025
0.132378
0.135921
0.139116
0.141744
0.14422
0.14637
0.14846
0.150398
0.152292
0.153945
0.155
0.155822
0.157126
0.158107
0.159075
0.161298
0.166159
0.168118
0.16802
0.167035
0.16417
0.15666
0.143916
0.129846
0.115454
0.105292
0.102149
0.102913
0.106884
0.122601
0.150009
0.162972
0.164149
0.161773
0.14997
0.117315
0.0959373
0.0870327
0.084123
0.0837705
0.0863893
0.0884812
0.0879396
0.0862386
0.0999609
0.241758
0.26652
0.132238
0.0779759
0.0548944
0.0444418
0.0418726
0.0434703
0.0509246
0.0625749
0.0667378
0.0681678
0.0684091
0.0670859
0.0634727
0.0592566
0.0540825
0.0476834
0.0417184
0.0376855
0.0349045
0.0322871
0.0296786
0.0274426
0.0251427
0.0231488
0.0212965
0.0197046
0.0187705
0.0182715
0.0181144
0.0186663
0.0200157
0.022221
0.0251051
0.02855
0.0325253
0.0367274
0.0409533
0.0448477
0.0480174
0.0500066
0.0512728
0.0518954
0.0519906
0.0515375
0.0505219
0.0489822
0.046898
0.0443507
0.0414415
0.0383167
0.0351935
0.032333
0.0299614
0.0282
0.0272052
0.0270725
0.0274725
0.0280872
0.0284321
0.0285308
0.0284657
0.0281734
0.0277684
0.0272845
0.0266287
0.0256618
0.0242244
0.0226674
0.0214511
0.0208083
0.0207444
0.0210772
0.0225238
0.0242784
0.0253999
0.0259245
0.0260701
0.0260647
0.0259279
0.0252919
0.0234837
0.0217481
0.0205112
0.0196901
0.019231
0.019027
0.018918
0.0187822
0.0185355
0.0179821
0.0162597
0.0127243
0.0103243
0.00917805
0.0085982
0.00803414
0.00776791
0.00779851
0.00791197
0.00811088
0.00866009
0.0107196
0.0154082
0.0183758
0.0223088
0.0318415
0.0624272
0.0784587
0.0794504
0.0808226
0.0900354
0.148317
0.221586
0.233397
0.194321
0.0980025
0.0526045
0.045222
0.0581474
0.0865473
0.102745
0.107779
0.107751
0.11867
0.083842
0.0466892
0.0526102
0.0764399
0.10629
0.118222
0.124412
0.128471
0.131879
0.135038
0.138029
0.14083
0.143232
0.145522
0.147956
0.150385
0.152628
0.1545
0.15561
0.156332
0.156186
0.155355
0.154882
0.155764
0.159814
0.168079
0.174622
0.177185
0.177317
0.176578
0.173104
0.167298
0.160779
0.146565
0.128012
0.11518
0.109682
0.110367
0.120062
0.145404
0.157851
0.159194
0.153569
0.123556
0.0956911
0.0868496
0.0859981
0.0884426
0.101175
0.11516
0.116529
0.114049
0.0924998
0.142114
0.228083
0.17149
0.0783883
0.0526776
0.0438437
0.0417202
0.0438793
0.0527824
0.0659245
0.0698926
0.0708269
0.0706954
0.0677094
0.0628041
0.0557277
0.0463789
0.0398975
0.0372997
0.0359743
0.0346973
0.0326745
0.0302082
0.0273665
0.0240647
0.0207387
0.0178279
0.0151908
0.0129142
0.0111382
0.00982339
0.00885496
0.00812482
0.00777167
0.00763172
0.00761416
0.0078652
0.0084133
0.00933683
0.0107665
0.0128942
0.0160256
0.020245
0.0249479
0.0296848
0.0341383
0.0380051
0.0410395
0.0428802
0.0434044
0.0429939
0.0413202
0.0388812
0.0360624
0.0332101
0.0306992
0.0284885
0.0264228
0.0249043
0.0241514
0.0240365
0.0242856
0.0253014
0.0264135
0.0271764
0.0274277
0.0273724
0.0270095
0.0264681
0.0255973
0.0239626
0.0218251
0.0201772
0.019402
0.0192417
0.0192816
0.0195314
0.020426
0.0224763
0.024108
0.0251633
0.0257878
0.0260377
0.0260463
0.0259473
0.0254093
0.0233791
0.0211408
0.0198329
0.0191423
0.0187916
0.0186152
0.0185047
0.0182881
0.0177215
0.0159304
0.0133881
0.011403
0.00992698
0.00912051
0.00884744
0.00879012
0.00879623
0.00885953
0.00910116
0.00986395
0.01127
0.0128288
0.0160751
0.0256687
0.0542956
0.0703883
0.0741104
0.0844971
0.148915
0.221665
0.220736
0.151931
0.0740931
0.0507721
0.0567523
0.0939268
0.111026
0.11629
0.116024
0.115119
0.0763957
0.0614572
0.0429255
0.0806807
0.107785
0.117336
0.122162
0.125753
0.128607
0.13122
0.133893
0.136614
0.139373
0.142349
0.145161
0.148816
0.152102
0.154776
0.157067
0.157544
0.157317
0.156005
0.153069
0.149855
0.14706
0.14771
0.15634
0.168692
0.175329
0.177205
0.177044
0.175478
0.171299
0.161943
0.144706
0.126542
0.11502
0.11183
0.113361
0.127741
0.151958
0.15759
0.15076
0.114484
0.0898714
0.0860381
0.0885932
0.105059
0.131513
0.145663
0.147989
0.14509
0.123177
0.100779
0.174231
0.196988
0.098239
0.0542941
0.0432833
0.0410322
0.0428698
0.051031
0.0666465
0.0718088
0.0729434
0.0728023
0.0696245
0.0630982
0.0517355
0.0427032
0.0396132
0.0382272
0.0375531
0.0369646
0.0359942
0.0344053
0.0314072
0.0269836
0.0226034
0.0184823
0.0147252
0.0116921
0.00925264
0.00735138
0.0059593
0.00497121
0.00425339
0.0037573
0.00343202
0.00328006
0.00324087
0.00323662
0.00325766
0.00331423
0.00340326
0.00356258
0.00397314
0.00469063
0.00580251
0.00741271
0.00946995
0.0121055
0.0153501
0.0191347
0.0227218
0.025606
0.0274606
0.0282286
0.0281021
0.027156
0.0261924
0.025207
0.024102
0.0231132
0.022568
0.0224294
0.0224537
0.0226215
0.0233216
0.0244093
0.0249522
0.0250715
0.0250454
0.0248585
0.024085
0.0215942
0.0190159
0.0177658
0.0175432
0.0176053
0.0178786
0.0182611
0.0186968
0.0196028
0.0208689
0.0223329
0.0237724
0.024907
0.0255742
0.0257661
0.025741
0.0254941
0.0243216
0.0216563
0.0199774
0.0190959
0.0186653
0.0184628
0.0183046
0.0180155
0.0173782
0.0156308
0.0129714
0.0108067
0.00960686
0.0091683
0.00906786
0.0090708
0.00912267
0.00922524
0.00947001
0.0101515
0.0114715
0.014807
0.0287651
0.0508945
0.057231
0.0689151
0.137596
0.215143
0.207567
0.125992
0.0652635
0.051774
0.0835881
0.113208
0.121543
0.121997
0.122767
0.129673
0.0686767
0.0582497
0.0571989
0.103966
0.113571
0.118449
0.12046
0.120933
0.121889
0.123242
0.125464
0.128373
0.133178
0.139051
0.144707
0.149161
0.153087
0.156912
0.161041
0.163543
0.164211
0.161171
0.155759
0.149994
0.144374
0.13977
0.1388
0.144951
0.15523
0.163154
0.166034
0.165283
0.159663
0.145417
0.12827
0.116303
0.112396
0.11341
0.125598
0.151862
0.157083
0.143314
0.096408
0.0809237
0.0822657
0.0959672
0.132735
0.155032
0.16263
0.163718
0.161855
0.148607
0.120624
0.123436
0.17181
0.151391
0.0649718
0.0446714
0.0409457
0.0411262
0.0467329
0.063381
0.0725315
0.0746512
0.0747966
0.0725198
0.0656757
0.0521578
0.0428044
0.0402364
0.0395819
0.0394384
0.0395805
0.039731
0.0392286
0.0366152
0.0312546
0.0254381
0.0205844
0.0162905
0.0127805
0.00985252
0.00747105
0.00558743
0.00415401
0.00309472
0.0023464
0.00185109
0.0015421
0.00137297
0.0012882
0.00124751
0.0012338
0.00123425
0.00121656
0.00115599
0.00115022
0.00120676
0.0013432
0.00160414
0.00197486
0.00249924
0.00312548
0.00401611
0.00523837
0.00687149
0.0086844
0.0105836
0.0124361
0.0143096
0.0161409
0.0179684
0.0196536
0.0206583
0.0211095
0.0213015
0.021421
0.0215982
0.0220513
0.0228513
0.0231608
0.0231598
0.0230165
0.022516
0.0212471
0.0181884
0.0149812
0.0134279
0.0132474
0.01341
0.0139907
0.0154816
0.0167056
0.017606
0.0185714
0.019363
0.0198817
0.0207899
0.0223645
0.023956
0.0249816
0.0253527
0.0253655
0.0251977
0.0243688
0.0219434
0.0201324
0.0191966
0.0187233
0.0184888
0.018265
0.0178064
0.0164772
0.0134246
0.0109569
0.00976203
0.00938233
0.00929448
0.00928342
0.00928913
0.00932405
0.00953755
0.0101262
0.0114513
0.0169172
0.0327056
0.0390972
0.0506097
0.117302
0.202703
0.195854
0.115663
0.063219
0.0577317
0.1013
0.123469
0.127314
0.129336
0.136464
0.145666
0.067252
0.060849
0.0857895
0.108299
0.113099
0.11238
0.109292
0.108052
0.107124
0.105832
0.107085
0.113325
0.122106
0.129928
0.136903
0.14396
0.151356
0.157592
0.162169
0.166475
0.170433
0.171986
0.171151
0.162655
0.150991
0.139092
0.13221
0.128542
0.127132
0.128023
0.129986
0.129203
0.123992
0.116927
0.112037
0.110986
0.113538
0.129531
0.153945
0.155835
0.129654
0.0787136
0.0706847
0.0763579
0.108929
0.145169
0.164296
0.169751
0.170628
0.170249
0.163269
0.14042
0.121681
0.147115
0.161625
0.0956372
0.0492131
0.0403726
0.0393748
0.0427586
0.0552343
0.0709956
0.0757267
0.0765532
0.0757967
0.0706359
0.0577866
0.0443887
0.0406694
0.0400178
0.0401246
0.0415186
0.0425695
0.04256
0.0410898
0.0365532
0.030155
0.0247898
0.0204505
0.016415
0.0130874
0.0101353
0.00767929
0.00567895
0.0041271
0.00295912
0.002111
0.00151841
0.00111048
0.000831636
0.000649986
0.000542224
0.000483532
0.00045578
0.0004362
0.000412161
0.000394336
0.00040089
0.000417631
0.000452337
0.000518428
0.000630966
0.000767564
0.000983202
0.00133006
0.00200568
0.00304295
0.0044749
0.00600801
0.0077082
0.00958233
0.0115309
0.0136612
0.0158608
0.0176703
0.0187844
0.0194326
0.0202403
0.021195
0.0218729
0.0220414
0.0219666
0.0215643
0.0203287
0.0169515
0.0126419
0.00903354
0.00705775
0.00672047
0.00686708
0.00739428
0.00870576
0.0113816
0.0139174
0.0158367
0.0172159
0.0182882
0.0190786
0.0195596
0.0202109
0.0218238
0.0236345
0.0246938
0.0251094
0.0251423
0.0249905
0.024295
0.0221676
0.0203777
0.019453
0.0190571
0.0187864
0.0182435
0.0165522
0.0131029
0.0107488
0.00979821
0.00953011
0.00946942
0.00943337
0.00941826
0.00947104
0.00973222
0.0103289
0.012551
0.0209675
0.0261484
0.0358923
0.0933461
0.187874
0.187252
0.116468
0.0638323
0.068876
0.112643
0.130663
0.133822
0.139519
0.148058
0.153983
0.0669608
0.0676777
0.0945378
0.106222
0.105182
0.0986368
0.0895724
0.0817853
0.0804972
0.083742
0.0903385
0.0975364
0.106047
0.115026
0.123736
0.133575
0.142652
0.151345
0.159342
0.165807
0.171278
0.175218
0.177662
0.178728
0.175975
0.164428
0.146382
0.131435
0.12412
0.119606
0.116772
0.114422
0.111657
0.109979
0.110112
0.114146
0.132769
0.152066
0.153139
0.118421
0.0704877
0.0609267
0.0685999
0.106506
0.145113
0.162143
0.168084
0.168805
0.170655
0.169313
0.154682
0.134172
0.130084
0.146848
0.139496
0.0639065
0.0419874
0.0386248
0.0395234
0.0462631
0.0638503
0.0750503
0.0776973
0.0779268
0.0756879
0.0671627
0.0510155
0.0414837
0.0395789
0.0395101
0.0409004
0.043913
0.0447394
0.0444688
0.0419909
0.0364814
0.0304948
0.026555
0.0234053
0.0201428
0.0169934
0.0138353
0.0108332
0.00813594
0.00585315
0.00405714
0.002726
0.00180738
0.00120727
0.000832206
0.000597357
0.000444606
0.000340717
0.000268982
0.000224286
0.000197548
0.000183318
0.000180434
0.000181663
0.00018321
0.000188101
0.000202836
0.000229034
0.000273023
0.00035558
0.000529675
0.0009074
0.00170862
0.00284351
0.00426952
0.00610611
0.00833369
0.0107408
0.0129686
0.0146176
0.0157659
0.0168572
0.0180092
0.018718
0.0188132
0.0186958
0.0182037
0.016895
0.0133888
0.00910249
0.00587417
0.00372395
0.00254764
0.00218611
0.00219658
0.00234487
0.00275124
0.00366876
0.00604826
0.00954727
0.0127064
0.0151792
0.0169279
0.0178945
0.0183149
0.0187256
0.0195759
0.0217731
0.0236792
0.0246416
0.0249969
0.0250206
0.0248695
0.0241929
0.0221702
0.0206849
0.0200703
0.0196095
0.0186228
0.0157356
0.0123914
0.0105303
0.00985056
0.00965444
0.00959238
0.00954441
0.00954058
0.00961716
0.00985424
0.0107076
0.0142551
0.0176421
0.0249882
0.0700149
0.171712
0.179112
0.1202
0.0666393
0.0764737
0.118965
0.135016
0.141285
0.148102
0.154914
0.15891
0.0670099
0.0710365
0.0949424
0.0989164
0.0911975
0.0740156
0.0687441
0.0688755
0.0731301
0.0800616
0.0857801
0.0897537
0.0936595
0.0994914
0.106535
0.112568
0.119897
0.129752
0.140317
0.15066
0.161302
0.170006
0.177133
0.181683
0.183876
0.184497
0.179461
0.165318
0.143137
0.130844
0.122434
0.116944
0.112925
0.111829
0.115389
0.132958
0.14636
0.149133
0.121669
0.0709142
0.0566518
0.059099
0.0801637
0.12723
0.153945
0.159519
0.158499
0.158182
0.162288
0.157976
0.140961
0.134441
0.137122
0.14075
0.0955827
0.0481742
0.0384304
0.0374353
0.0405995
0.0517665
0.0699021
0.0776869
0.0794019
0.079374
0.0762818
0.0666478
0.0489689
0.0400544
0.0385664
0.0388597
0.0417119
0.0456503
0.0464381
0.0460248
0.0431389
0.037803
0.0344128
0.0332934
0.0321756
0.0299138
0.026659
0.0230866
0.018904
0.0147785
0.0109034
0.00763424
0.00507025
0.00322056
0.00198405
0.00121576
0.000761955
0.00050049
0.000348587
0.000256907
0.000197511
0.000158187
0.000134444
0.000123465
0.000120443
0.000118279
0.000114801
0.000111604
0.000110593
0.000113936
0.000127342
0.000161741
0.000248356
0.000435499
0.000669726
0.00096461
0.00147058
0.0025593
0.00458639
0.0069293
0.00914008
0.0111587
0.0125728
0.013089
0.0131101
0.0129612
0.0123981
0.0110081
0.00754447
0.00460297
0.0028226
0.00179388
0.00118647
0.00081744
0.000658381
0.000643641
0.000667217
0.000748009
0.000929587
0.0013131
0.00212351
0.0040786
0.00805131
0.0117736
0.0143341
0.015975
0.016873
0.0173285
0.0180197
0.0198378
0.0224449
0.0240104
0.0247178
0.024927
0.0249158
0.024706
0.0236956
0.0221693
0.0214325
0.0205208
0.0181723
0.0144909
0.0117738
0.0104261
0.00993149
0.00979147
0.0097062
0.00964208
0.00964945
0.00971601
0.00997584
0.0109593
0.0128888
0.0179454
0.0506473
0.152564
0.171532
0.1259
0.073564
0.0827058
0.122949
0.138736
0.147275
0.153229
0.158324
0.160436
0.0671854
0.073605
0.0897942
0.088483
0.0722716
0.0633543
0.0629
0.0662358
0.0740363
0.0793247
0.0799411
0.078689
0.0753145
0.0720002
0.0705202
0.0701722
0.0731175
0.0783078
0.0864618
0.0979403
0.113828
0.132144
0.151364
0.166762
0.180171
0.186895
0.189471
0.189501
0.181816
0.163617
0.14594
0.137604
0.127899
0.124349
0.127829
0.138217
0.145365
0.128382
0.0927949
0.0593318
0.0542807
0.0601926
0.0864085
0.132054
0.148579
0.151103
0.14732
0.145985
0.146992
0.142969
0.136796
0.13515
0.135999
0.124653
0.0632358
0.040706
0.0365389
0.0365811
0.0420031
0.0557392
0.0733293
0.0795545
0.0809983
0.0809135
0.077652
0.0676634
0.04963
0.0390451
0.037366
0.0380381
0.0422015
0.0470947
0.0480428
0.0476651
0.0446017
0.0424438
0.0431553
0.0454107
0.0460822
0.045152
0.0416397
0.0376723
0.0320227
0.026068
0.0199842
0.0144616
0.00983787
0.00631371
0.0038482
0.00226235
0.00130974
0.000765616
0.000463594
0.000298554
0.000208403
0.000157791
0.000128182
0.000110515
0.00010203
9.95743e-05
9.68986e-05
9.28694e-05
8.78128e-05
8.31529e-05
8.0969e-05
8.24804e-05
9.32671e-05
0.000124783
0.000163107
0.000204025
0.000273249
0.000417818
0.000718085
0.00135092
0.00237801
0.0034193
0.00408414
0.00430954
0.00430696
0.00418772
0.00380769
0.00283565
0.00187036
0.0011933
0.00076575
0.000508703
0.000355095
0.000256816
0.000202813
0.000190596
0.000193546
0.000207504
0.000244937
0.000319366
0.000471415
0.000804991
0.00153847
0.00315991
0.00678465
0.0103244
0.0129265
0.0146539
0.0155753
0.0163258
0.0179838
0.0209857
0.0231061
0.0242543
0.0247144
0.024788
0.0247199
0.0242863
0.0235796
0.0226593
0.0204298
0.0166025
0.0132625
0.0112013
0.0103045
0.0099953
0.00988915
0.00983278
0.00971855
0.0096861
0.00973099
0.00998823
0.0107984
0.0139001
0.0365015
0.130749
0.164015
0.132992
0.0818843
0.0875524
0.122796
0.140947
0.151178
0.156077
0.159434
0.160335
0.0672779
0.074003
0.084198
0.0793203
0.0634473
0.0596628
0.06126
0.0670898
0.0687196
0.0672323
0.0577762
0.0458504
0.0416037
0.0396356
0.038549
0.0380026
0.0377422
0.0376204
0.0380285
0.0390595
0.043044
0.0507014
0.0654948
0.0900692
0.119886
0.152222
0.176114
0.188838
0.193766
0.191397
0.177992
0.155093
0.142982
0.137259
0.135715
0.136414
0.143323
0.12377
0.0880918
0.0565562
0.0517409
0.0562042
0.0778713
0.121053
0.140723
0.143651
0.141795
0.139327
0.139165
0.137341
0.135316
0.133959
0.128502
0.0868428
0.0476722
0.0368678
0.0350096
0.0365843
0.0443061
0.0600055
0.0756378
0.0813237
0.0825358
0.0824556
0.0795775
0.0703436
0.0528247
0.0396742
0.0371421
0.0376052
0.0418824
0.0482311
0.0496303
0.0493852
0.0482198
0.0489762
0.0546892
0.0605602
0.0627526
0.0633558
0.060271
0.0559145
0.0494281
0.0419128
0.0336618
0.0254625
0.018037
0.0119152
0.00736776
0.004306
0.00241715
0.00133089
0.000737262
0.000423806
0.000261965
0.000177519
0.000133061
0.000109716
9.68968e-05
9.10767e-05
8.96885e-05
8.73138e-05
8.35448e-05
7.84683e-05
7.29182e-05
6.82547e-05
6.58577e-05
6.61053e-05
6.9645e-05
7.50719e-05
8.33264e-05
9.9915e-05
0.000136122
0.000232025
0.000434962
0.000633485
0.000764436
0.000810933
0.000811156
0.000792156
0.00072784
0.000559571
0.000394558
0.000275223
0.000195031
0.000143773
0.000112317
9.19783e-05
7.86295e-05
7.35281e-05
7.34866e-05
7.52382e-05
8.07005e-05
9.30504e-05
0.00011977
0.000177846
0.0003112
0.000641578
0.00146029
0.00357335
0.00655054
0.00916613
0.0110614
0.0122067
0.0129925
0.0143903
0.0180368
0.0215465
0.0233848
0.0242672
0.0246913
0.0247846
0.0247469
0.0244585
0.0231394
0.019163
0.014999
0.0121732
0.0107513
0.0102078
0.0100279
0.00995732
0.00986014
0.00961533
0.00951016
0.00955929
0.00988324
0.0117736
0.0269381
0.107887
0.155792
0.139515