/*--------------------------------*- C++ -*----------------------------------*\
  =========                 |
  \\      /  F ield         | OpenFOAM: The Open Source CFD Toolbox
   \\    /   O peration     | Website:  https://openfoam.org
    \\  /    A nd           | Version:  6
     \\/     M anipulation  |
\*---------------------------------------------------------------------------*/
FoamFile
{
    version     2.0;
    format      ascii;
    class       surfaceScalarField;
    location    "0.45";
    object      phi;
}
// * * * * * * * * * * * * * * * * * * * * * * * * * * * * * * * * * * * * * //

dimensions      [0 3 -1 0 0 0 0];

internalField   nonuniform List<scalar> 
24170
(
3.06079e-06
7.77315e-08
2.97975e-06
8.10459e-08
2.90038e-06
7.93658e-08
2.81891e-06
8.14745e-08
2.73134e-06
8.7564e-08
2.64284e-06
8.85071e-08
2.56006e-06
8.27759e-08
2.48791e-06
7.21472e-08
2.42738e-06
6.05382e-08
2.37698e-06
5.03932e-08
2.333e-06
4.39797e-08
2.29339e-06
3.96169e-08
2.25578e-06
3.76011e-08
2.22497e-06
3.08136e-08
2.20209e-06
2.2876e-08
2.19222e-06
9.8772e-09
2.20767e-06
-1.54511e-08
-5.72463e-08
2.26491e-06
3.40707e-06
5.40767e-08
3.44744e-06
4.06783e-08
3.47542e-06
5.13877e-08
3.48682e-06
7.00774e-08
3.49272e-06
8.16545e-08
3.49525e-06
8.59792e-08
3.49192e-06
8.61089e-08
3.48403e-06
8.00395e-08
3.47655e-06
6.80204e-08
3.47376e-06
5.31809e-08
3.47686e-06
4.08772e-08
3.48426e-06
3.22164e-08
3.49394e-06
2.7922e-08
3.50501e-06
1.97423e-08
3.51964e-06
8.24774e-09
3.53913e-06
-9.60941e-09
3.5689e-06
-4.52203e-08
-9.1677e-08
3.60333e-06
3.63723e-06
1.25806e-07
3.61511e-06
6.27931e-08
3.65834e-06
8.15839e-09
3.71212e-06
1.63011e-08
3.74819e-06
4.55815e-08
3.76628e-06
6.78922e-08
3.77588e-06
7.6511e-08
3.78367e-06
7.22495e-08
3.79147e-06
6.02212e-08
3.7996e-06
4.50428e-08
3.80973e-06
3.07492e-08
3.82354e-06
1.84072e-08
3.84233e-06
9.12804e-09
3.8647e-06
-2.62661e-09
3.89036e-06
-1.74104e-08
3.9205e-06
-3.97436e-08
3.94954e-06
-7.42687e-08
-1.14941e-07
3.97281e-06
3.89075e-06
4.77491e-08
3.93451e-06
1.9024e-08
3.95302e-06
-1.03453e-08
3.95555e-06
1.37675e-08
3.95259e-06
4.85456e-08
3.96011e-06
6.0373e-08
3.98289e-06
5.37321e-08
4.00995e-06
4.51883e-08
4.02825e-06
4.19157e-08
4.034e-06
3.92914e-08
4.0332e-06
3.15523e-08
4.03465e-06
1.69552e-08
4.04494e-06
-1.16133e-09
4.06489e-06
-2.25772e-08
4.09386e-06
-4.63763e-08
4.12848e-06
-7.43674e-08
4.16225e-06
-1.0804e-07
-1.44518e-07
4.19183e-06
4.18828e-06
1.35823e-07
4.18028e-06
2.70244e-08
4.18619e-06
-1.62565e-08
4.20814e-06
-8.18068e-09
4.24031e-06
1.63731e-08
4.26939e-06
3.1291e-08
4.29506e-06
2.80591e-08
4.32221e-06
1.80381e-08
4.35168e-06
1.24485e-08
4.3788e-06
1.2171e-08
4.3972e-06
1.31513e-08
4.40341e-06
1.07482e-08
4.40024e-06
2.01061e-09
4.39451e-06
-1.68461e-08
4.39414e-06
-4.60074e-08
4.40243e-06
-8.26616e-08
4.41862e-06
-1.24229e-07
-1.67742e-07
4.44184e-06
4.42588e-06
1.14345e-07
4.46553e-06
-1.26313e-08
4.48949e-06
-4.02105e-08
4.51169e-06
-3.03811e-08
4.54743e-06
-1.93686e-08
4.5856e-06
-6.88028e-09
4.61187e-06
1.78961e-09
4.62702e-06
2.88913e-09
4.64194e-06
-2.47328e-09
4.66415e-06
-1.00399e-08
4.69252e-06
-1.52128e-08
4.72085e-06
-1.75825e-08
4.74415e-06
-2.12885e-08
4.75996e-06
-3.26639e-08
4.76966e-06
-5.56999e-08
4.77605e-06
-8.90545e-08
4.78264e-06
-1.30816e-07
-1.75642e-07
4.79054e-06
4.80876e-06
1.69713e-07
4.7814e-06
1.4727e-08
4.7722e-06
-3.10126e-08
4.77526e-06
-3.34404e-08
4.80343e-06
-4.75307e-08
4.8539e-06
-5.73587e-08
4.91257e-06
-5.68745e-08
4.96396e-06
-4.85029e-08
4.99759e-06
-3.6108e-08
5.01144e-06
-2.38867e-08
5.01112e-06
-1.48898e-08
5.00488e-06
-1.13479e-08
5.00012e-06
-1.65226e-08
5.00101e-06
-3.35584e-08
5.00835e-06
-6.30335e-08
5.02125e-06
-1.01963e-07
5.03667e-06
-1.46233e-07
-1.91238e-07
5.05227e-06
5.257e-06
5.8869e-08
5.19847e-06
7.32635e-08
5.19361e-06
-2.61554e-08
5.20501e-06
-4.48388e-08
5.20875e-06
-5.12785e-08
5.22185e-06
-7.04513e-08
5.25293e-06
-8.79571e-08
5.29458e-06
-9.01551e-08
5.33319e-06
-7.47205e-08
5.35919e-06
-4.9879e-08
5.3718e-06
-2.75017e-08
5.37774e-06
-1.72922e-08
5.3852e-06
-2.3976e-08
5.39906e-06
-4.74194e-08
5.41914e-06
-8.31167e-08
5.44216e-06
-1.24986e-07
5.46356e-06
-1.67634e-07
-2.07907e-07
5.48023e-06
5.62331e-06
6.00168e-08
5.5915e-06
1.05078e-07
5.53627e-06
2.90762e-08
5.50193e-06
-1.05036e-08
5.50326e-06
-5.26047e-08
5.537e-06
-1.04192e-07
5.59449e-06
-1.45452e-07
5.6628e-06
-1.58458e-07
5.72607e-06
-1.37997e-07
5.77085e-06
-9.46572e-08
5.79158e-06
-4.82298e-08
5.7922e-06
-1.79185e-08
5.78219e-06
-1.39658e-08
5.77121e-06
-3.64389e-08
5.76666e-06
-7.85599e-08
5.77098e-06
-1.29311e-07
5.7852e-06
-1.81852e-07
-2.27964e-07
5.80526e-06
5.80699e-06
-9.50167e-09
5.9095e-06
2.57726e-09
5.9785e-06
-3.99259e-08
6.00005e-06
-3.20571e-08
5.9919e-06
-4.44492e-08
5.9744e-06
-8.66981e-08
5.96026e-06
-1.31315e-07
5.95474e-06
-1.52933e-07
5.95899e-06
-1.42244e-07
5.97059e-06
-1.06265e-07
5.98509e-06
-6.27282e-08
5.99935e-06
-3.21724e-08
6.01354e-06
-2.81595e-08
6.02895e-06
-5.18495e-08
6.04647e-06
-9.60801e-08
6.06593e-06
-1.48766e-07
6.08673e-06
-2.02659e-07
-2.51683e-07
6.11045e-06
6.19023e-06
1.61444e-09
6.27664e-06
-8.38377e-08
6.32907e-06
-9.23479e-08
6.37907e-06
-8.20605e-08
6.42795e-06
-9.33323e-08
6.45652e-06
-1.15266e-07
6.45461e-06
-1.29407e-07
6.43057e-06
-1.28895e-07
6.40473e-06
-1.16396e-07
6.3961e-06
-9.76419e-08
6.41296e-06
-7.95888e-08
6.45118e-06
-7.03866e-08
6.49896e-06
-7.59406e-08
6.54343e-06
-9.63204e-08
6.57616e-06
-1.28812e-07
6.59523e-06
-1.67838e-07
6.60358e-06
-2.11005e-07
-2.5412e-07
6.60602e-06
5.73245e-06
-1.11216e-07
5.72412e-06
-7.54978e-08
5.67302e-06
-4.12562e-08
5.6442e-06
-5.32415e-08
5.6315e-06
-8.06249e-08
5.62425e-06
-1.08022e-07
5.62276e-06
-1.27918e-07
5.63153e-06
-1.37655e-07
5.65287e-06
-1.37739e-07
5.68479e-06
-1.29565e-07
5.72205e-06
-1.16847e-07
5.7582e-06
-1.06539e-07
5.78826e-06
-1.06003e-07
5.81137e-06
-1.19427e-07
5.829e-06
-1.4644e-07
5.8452e-06
-1.84039e-07
5.86142e-06
-2.27227e-07
-2.71928e-07
5.87923e-06
6.90355e-06
-8.27313e-08
6.90219e-06
-7.41383e-08
6.94116e-06
-8.02204e-08
7.00244e-06
-1.14521e-07
7.04273e-06
-1.20921e-07
7.04085e-06
-1.06138e-07
7.01429e-06
-1.01358e-07
6.9931e-06
-1.16467e-07
6.99299e-06
-1.37628e-07
7.01236e-06
-1.48936e-07
7.04309e-06
-1.47573e-07
7.07848e-06
-1.41931e-07
7.11561e-06
-1.43139e-07
7.15468e-06
-1.58492e-07
7.1954e-06
-1.87155e-07
7.23611e-06
-2.24752e-07
7.27259e-06
-2.63711e-07
-2.98123e-07
7.29879e-06
8.40225e-06
1.46581e-08
8.43369e-06
-1.05581e-07
8.52728e-06
-1.73808e-07
8.57869e-06
-1.65932e-07
8.58086e-06
-1.23096e-07
8.56895e-06
-9.423e-08
8.56865e-06
-1.01051e-07
8.58278e-06
-1.306e-07
8.60056e-06
-1.5541e-07
8.6121e-06
-1.60476e-07
8.61599e-06
-1.51464e-07
8.61762e-06
-1.43555e-07
8.62333e-06
-1.48854e-07
8.63612e-06
-1.71282e-07
8.65492e-06
-2.05953e-07
8.67531e-06
-2.4514e-07
8.69284e-06
-2.81247e-07
-3.0944e-07
8.70416e-06
1.03883e-05
-6.31997e-08
1.04119e-05
-1.29154e-07
1.03947e-05
-1.56569e-07
1.03598e-05
-1.31116e-07
1.03399e-05
-1.03142e-07
1.0352e-05
-1.06364e-07
1.03908e-05
-1.39837e-07
1.04375e-05
-1.7733e-07
1.04761e-05
-1.93933e-07
1.05008e-05
-1.85264e-07
1.05153e-05
-1.65913e-07
1.05263e-05
-1.54602e-07
1.05386e-05
-1.61139e-07
1.0553e-05
-1.85621e-07
1.05671e-05
-2.20062e-07
1.05782e-05
-2.56259e-07
1.05846e-05
-2.87656e-07
-3.10912e-07
1.05861e-05
1.25334e-05
-1.05109e-07
1.25805e-05
-1.76272e-07
1.26209e-05
-1.96969e-07
1.26572e-05
-1.67437e-07
1.26864e-05
-1.32313e-07
1.27098e-05
-1.29755e-07
1.27203e-05
-1.50344e-07
1.2713e-05
-1.70118e-07
1.26953e-05
-1.76152e-07
1.26817e-05
-1.71703e-07
1.26841e-05
-1.68345e-07
1.27053e-05
-1.75779e-07
1.27401e-05
-1.95944e-07
1.27796e-05
-2.25054e-07
1.28152e-05
-2.55674e-07
1.28415e-05
-2.82609e-07
1.2856e-05
-3.02095e-07
-3.14556e-07
1.28596e-05
1.53924e-05
2.95328e-07
1.53768e-05
-1.60621e-07
1.54414e-05
-2.61592e-07
1.54919e-05
-2.17892e-07
1.55249e-05
-1.65316e-07
1.55321e-05
-1.36981e-07
1.55073e-05
-1.2556e-07
1.54561e-05
-1.18882e-07
1.53948e-05
-1.14868e-07
1.53433e-05
-1.2019e-07
1.53166e-05
-1.41638e-07
1.53194e-05
-1.78596e-07
1.53466e-05
-2.23118e-07
1.53857e-05
-2.64225e-07
1.54228e-05
-2.92783e-07
1.54469e-05
-3.06669e-07
1.54516e-05
-3.06829e-07
-2.99678e-07
1.54368e-05
1.8779e-05
-1.34862e-07
1.87948e-05
-1.76491e-07
1.86881e-05
-1.54831e-07
1.85888e-05
-1.18633e-07
1.85426e-05
-1.19076e-07
1.85611e-05
-1.55516e-07
1.86251e-05
-1.8957e-07
1.87011e-05
-1.94836e-07
1.87647e-05
-1.78466e-07
1.88074e-05
-1.62894e-07
1.88292e-05
-1.6347e-07
1.8832e-05
-1.81332e-07
1.8817e-05
-2.08162e-07
1.87861e-05
-2.33339e-07
1.87425e-05
-2.49155e-07
1.86905e-05
-2.54685e-07
1.86358e-05
-2.5216e-07
-2.46705e-07
1.85829e-05
2.32472e-05
-6.48639e-08
2.31139e-05
-4.31783e-08
2.29315e-05
2.75758e-08
2.28422e-05
-2.92817e-08
2.28625e-05
-1.39458e-07
2.29174e-05
-2.10327e-07
2.29496e-05
-2.21789e-07
2.2951e-05
-1.9625e-07
2.29353e-05
-1.62753e-07
2.29115e-05
-1.39128e-07
2.28794e-05
-1.31348e-07
2.28369e-05
-1.38849e-07
2.2786e-05
-1.57239e-07
2.27338e-05
-1.81135e-07
2.26905e-05
-2.05896e-07
2.26646e-05
-2.28788e-07
2.26615e-05
-2.49002e-07
-2.67695e-07
2.26825e-05
1.66143e-05
-1.60178e-07
1.68217e-05
-2.50603e-07
1.69856e-05
-1.36321e-07
1.70675e-05
-1.11162e-07
1.70742e-05
-1.46169e-07
1.70451e-05
-1.81222e-07
1.70073e-05
-1.83936e-07
1.69717e-05
-1.6071e-07
1.69451e-05
-1.3612e-07
1.69313e-05
-1.25329e-07
1.6928e-05
-1.28061e-07
1.69273e-05
-1.38164e-07
1.69209e-05
-1.50797e-07
1.69047e-05
-1.64924e-07
1.68803e-05
-1.81559e-07
1.68526e-05
-2.01078e-07
1.68261e-05
-2.22466e-07
-2.41235e-07
1.67996e-05
1.47826e-05
-3.56328e-07
1.47962e-05
-2.64267e-07
1.47811e-05
-1.2124e-07
1.47488e-05
-7.88021e-08
1.47244e-05
-1.21777e-07
1.47171e-05
-1.73923e-07
1.47318e-05
-1.98645e-07
1.47689e-05
-1.97817e-07
1.48178e-05
-1.85001e-07
1.48644e-05
-1.71967e-07
1.49004e-05
-1.64038e-07
1.49225e-05
-1.60238e-07
1.49291e-05
-1.57435e-07
1.49179e-05
-1.537e-07
1.48864e-05
-1.501e-07
1.48345e-05
-1.49177e-07
1.47642e-05
-1.52103e-07
-1.62002e-07
1.46849e-05
1.3178e-05
-1.55272e-07
1.29637e-05
-4.99554e-08
1.29091e-05
-6.66867e-08
1.28937e-05
-6.33619e-08
1.28225e-05
-5.06197e-08
1.27028e-05
-5.42589e-08
1.25993e-05
-9.51295e-08
1.25635e-05
-1.62024e-07
1.26013e-05
-2.22767e-07
1.26828e-05
-2.53449e-07
1.27687e-05
-2.49945e-07
1.283e-05
-2.21532e-07
1.28544e-05
-1.81842e-07
1.28435e-05
-1.42852e-07
1.28053e-05
-1.11883e-07
1.2749e-05
-9.28239e-08
1.26818e-05
-8.49321e-08
-8.81909e-08
1.2608e-05
1.119e-05
1.16451e-07
1.11938e-05
-5.37585e-08
1.12555e-05
-1.28378e-07
1.12861e-05
-9.40246e-08
1.12881e-05
-5.25772e-08
1.12918e-05
-5.79394e-08
1.1302e-05
-1.0532e-07
1.13002e-05
-1.60234e-07
1.12716e-05
-1.94237e-07
1.12195e-05
-2.01328e-07
1.11597e-05
-1.90091e-07
1.11089e-05
-1.70711e-07
1.10769e-05
-1.49892e-07
1.1066e-05
-1.31919e-07
1.10721e-05
-1.18045e-07
1.10884e-05
-1.09059e-07
1.11068e-05
-1.03365e-07
-9.87916e-08
1.11174e-05
9.61679e-06
7.61214e-08
9.59083e-06
-2.77991e-08
9.57841e-06
-1.15961e-07
9.60401e-06
-1.19623e-07
9.64829e-06
-9.68497e-08
9.69513e-06
-1.04779e-07
9.71992e-06
-1.30118e-07
9.70431e-06
-1.44615e-07
9.65195e-06
-1.41883e-07
9.5838e-06
-1.33177e-07
9.52316e-06
-1.29452e-07
9.48448e-06
-1.32029e-07
9.47047e-06
-1.35882e-07
9.47448e-06
-1.3593e-07
9.48612e-06
-1.29688e-07
9.49593e-06
-1.18866e-07
9.49799e-06
-1.05429e-07
-9.33655e-08
9.49257e-06
8.51415e-06
-1.10469e-07
8.5797e-06
-9.33513e-08
8.52776e-06
-6.40228e-08
8.46953e-06
-6.13896e-08
8.44784e-06
-7.51639e-08
8.45266e-06
-1.09595e-07
8.46049e-06
-1.37954e-07
8.4564e-06
-1.40525e-07
8.43721e-06
-1.22687e-07
8.40596e-06
-1.01933e-07
8.36713e-06
-9.06214e-08
8.32516e-06
-9.00585e-08
8.28418e-06
-9.49042e-08
8.2478e-06
-9.95455e-08
8.21912e-06
-1.01012e-07
8.19985e-06
-9.95944e-08
8.19101e-06
-9.6586e-08
-9.40638e-08
8.19171e-06
7.41364e-06
-2.01036e-07
7.43091e-06
-1.10628e-07
7.41015e-06
-4.32582e-08
7.40367e-06
-5.49119e-08
7.40642e-06
-7.7917e-08
7.38822e-06
-9.13911e-08
7.34843e-06
-9.81619e-08
7.30983e-06
-1.01924e-07
7.29115e-06
-1.04011e-07
7.29321e-06
-1.03993e-07
7.30348e-06
-1.00892e-07
7.30795e-06
-9.45287e-08
7.29911e-06
-8.60656e-08
7.278e-06
-7.84345e-08
7.25127e-06
-7.42769e-08
7.22643e-06
-7.47589e-08
7.20917e-06
-7.93201e-08
-8.41711e-08
7.19927e-06
6.35259e-06
-1.10527e-07
6.32703e-06
-8.50613e-08
6.35458e-06
-7.08164e-08
6.3798e-06
-8.01296e-08
6.38401e-06
-8.21215e-08
6.37445e-06
-8.18336e-08
6.36248e-06
-8.61965e-08
6.3524e-06
-9.18438e-08
6.3426e-06
-9.42058e-08
6.33145e-06
-9.28481e-08
6.32027e-06
-8.97041e-08
6.3121e-06
-8.6367e-08
6.30908e-06
-8.30449e-08
6.31045e-06
-7.98017e-08
6.31351e-06
-7.73388e-08
6.31536e-06
-7.66067e-08
6.31438e-06
-7.83422e-08
-8.22599e-08
6.31247e-06
5.51441e-06
-9.43266e-08
5.54959e-06
-1.20239e-07
5.57516e-06
-9.63832e-08
5.57292e-06
-7.78926e-08
5.56025e-06
-6.94561e-08
5.55601e-06
-7.7595e-08
5.56087e-06
-9.10468e-08
5.56739e-06
-9.83682e-08
5.5699e-06
-9.67158e-08
5.56715e-06
-9.00971e-08
5.56149e-06
-8.40496e-08
5.55631e-06
-8.11856e-08
5.55326e-06
-7.99913e-08
5.55064e-06
-7.71832e-08
5.54463e-06
-7.13255e-08
5.53198e-06
-6.39553e-08
5.51139e-06
-5.77517e-08
-5.58158e-08
5.48494e-06
4.85876e-06
-1.67536e-08
4.85943e-06
-1.20907e-07
4.89165e-06
-1.28608e-07
4.93942e-06
-1.25659e-07
4.97707e-06
-1.07104e-07
4.98464e-06
-8.51623e-08
4.96268e-06
-6.9087e-08
4.92496e-06
-6.06481e-08
4.88558e-06
-5.73411e-08
4.85284e-06
-5.73546e-08
4.82922e-06
-6.04269e-08
4.81359e-06
-6.55621e-08
4.80353e-06
-6.99274e-08
4.79617e-06
-6.982e-08
4.78867e-06
-6.38316e-08
4.77838e-06
-5.36628e-08
4.76253e-06
-4.18985e-08
-3.41696e-08
4.74088e-06
4.32269e-06
4.20178e-06
4.07317e-06
3.94752e-06
3.84041e-06
3.75525e-06
3.68616e-06
3.62551e-06
3.56817e-06
3.51082e-06
3.45039e-06
3.38483e-06
3.3149e-06
3.24508e-06
3.18125e-06
3.12759e-06
3.08569e-06
3.05152e-06
-3.84629e-07
3.84629e-07
-6.86922e-07
3.02293e-07
-8.18754e-07
1.31832e-07
-5.88374e-07
-2.3038e-07
-1.19116e-07
-4.69258e-07
4.62255e-07
-5.81371e-07
1.07175e-06
-6.09497e-07
1.66568e-06
-5.93924e-07
2.22892e-06
-5.63242e-07
2.75785e-06
-5.28928e-07
3.2524e-06
-4.94549e-07
3.71398e-06
-4.61581e-07
4.14426e-06
-4.30285e-07
4.54471e-06
-4.00444e-07
4.91659e-06
-3.71881e-07
5.26036e-06
-3.43773e-07
5.57585e-06
-3.15489e-07
5.86259e-06
-2.86739e-07
6.11873e-06
-2.56143e-07
6.34296e-06
-2.24234e-07
6.53277e-06
-1.89809e-07
6.68498e-06
-1.52211e-07
6.79831e-06
-1.1333e-07
6.8668e-06
-6.8487e-08
6.88873e-06
-2.1928e-08
6.8588e-06
2.99275e-08
6.76821e-06
9.05927e-08
6.62657e-06
1.4164e-07
6.41876e-06
2.07811e-07
6.15036e-06
2.684e-07
5.84205e-06
3.08303e-07
5.43946e-06
4.02599e-07
4.99123e-06
4.48227e-07
4.5241e-06
4.67125e-07
3.85561e-06
6.68492e-07
3.05246e-06
8.03155e-07
2.3935e-06
6.58955e-07
1.98133e-06
4.12168e-07
1.83167e-06
1.49668e-07
1.87082e-06
-3.91572e-08
1.95683e-06
-8.60041e-08
1.9968e-06
-3.99723e-08
1.96698e-06
2.98195e-08
1.89364e-06
7.33385e-08
1.81703e-06
7.66077e-08
1.75964e-06
5.73903e-08
1.72117e-06
3.84727e-08
1.68588e-06
3.52928e-08
1.62972e-06
5.61613e-08
1.53122e-06
9.84981e-08
1.37087e-06
1.60352e-07
1.1318e-06
2.3907e-07
7.90942e-07
3.40854e-07
4.34472e-07
3.56471e-07
1.29277e-07
3.05195e-07
5.398e-08
7.5297e-08
2.72818e-07
-2.18838e-07
7.64791e-07
-4.91973e-07
1.17413e-06
-4.09335e-07
8.30408e-07
3.43718e-07
-3.3677e-07
1.16718e-06
-2.79587e-06
2.4591e-06
-5.41424e-06
2.61837e-06
-7.75299e-06
2.33875e-06
-9.7674e-06
2.01442e-06
-1.14083e-05
1.6409e-06
-1.2715e-05
1.30673e-06
-1.37225e-05
1.00748e-06
-1.44838e-05
7.61275e-07
-1.50399e-05
5.56062e-07
-1.54282e-05
3.88298e-07
-1.56751e-05
2.46986e-07
-1.58016e-05
1.26428e-07
-1.58227e-05
2.11692e-08
-1.57529e-05
-6.98063e-08
-1.56029e-05
-1.50028e-07
-1.538e-05
-2.22887e-07
-1.50912e-05
-2.88776e-07
-1.47442e-05
-3.47067e-07
-1.43472e-05
-3.96964e-07
-1.39093e-05
-4.37908e-07
-1.34394e-05
-4.69892e-07
-1.29461e-05
-4.9332e-07
-1.24371e-05
-5.08985e-07
-1.19194e-05
-5.17739e-07
-1.13987e-05
-5.20678e-07
-1.08799e-05
-5.18764e-07
-1.03669e-05
-5.13035e-07
-9.86249e-06
-5.04394e-07
-9.36881e-06
-4.9368e-07
-8.88721e-06
-4.81607e-07
-8.41844e-06
-4.6877e-07
-7.96276e-06
-4.55675e-07
-7.52006e-06
-4.42702e-07
-7.08991e-06
-4.30154e-07
-6.67167e-06
-4.1824e-07
-6.26456e-06
-4.07102e-07
-5.86773e-06
-3.96834e-07
-5.48024e-06
-3.87485e-07
-5.10117e-06
-3.79078e-07
-4.72954e-06
-3.71628e-07
-4.36441e-06
-3.65129e-07
-4.00488e-06
-3.59527e-07
-3.65021e-06
-3.5467e-07
-3.29998e-06
-3.50237e-07
-2.95426e-06
-3.45716e-07
-2.61385e-06
-3.40411e-07
-2.2803e-06
-3.33548e-07
-1.95589e-06
-3.24415e-07
-1.64337e-06
-3.12516e-07
-1.34556e-06
-2.97805e-07
-1.06496e-06
-2.80605e-07
-8.03248e-07
-2.61711e-07
-5.6094e-07
-2.42307e-07
-3.36974e-07
-2.23967e-07
-1.28658e-07
-2.08316e-07
6.80482e-08
-1.96706e-07
2.58178e-07
-1.9013e-07
4.48521e-07
-1.90343e-07
6.46896e-07
-1.98375e-07
8.60176e-07
-2.1328e-07
1.09219e-06
-2.3201e-07
1.342e-06
-2.49818e-07
1.6032e-06
-2.61197e-07
1.86484e-06
-2.61636e-07
2.11399e-06
-2.4915e-07
2.33876e-06
-2.24768e-07
2.53061e-06
-1.91858e-07
2.6854e-06
-1.54789e-07
2.80312e-06
-1.17716e-07
2.88693e-06
-8.3814e-08
2.94192e-06
-5.49825e-08
2.97426e-06
-3.23454e-08
2.99103e-06
-1.67669e-08
2.99797e-06
-6.93941e-09
2.99653e-06
1.43533e-09
2.98945e-06
7.08139e-09
2.98979e-06
-3.41716e-10
3.00356e-06
-1.37671e-08
3.00347e-06
8.75369e-11
2.98087e-06
2.26045e-08
2.99226e-06
-1.13926e-08
3.03139e-06
-3.91268e-08
2.98692e-06
4.44675e-08
2.90349e-06
8.34348e-08
2.94878e-06
-4.52948e-08
2.93361e-06
1.51738e-08
2.48804e-06
4.4557e-07
1.73467e-06
7.53364e-07
1.04146e-06
6.93212e-07
6.54148e-07
3.87312e-07
6.45417e-07
8.73167e-09
8.67085e-07
-2.21669e-07
1.12499e-06
-2.57904e-07
1.3319e-06
-2.06915e-07
1.45642e-06
-1.24519e-07
1.47778e-06
-2.13548e-08
1.41635e-06
6.14294e-08
1.32974e-06
8.66042e-08
1.28032e-06
4.94238e-08
1.33132e-06
-5.09955e-08
1.52182e-06
-1.90507e-07
1.7585e-06
-2.36677e-07
1.82871e-06
-7.02081e-08
1.69085e-06
1.37861e-07
1.56019e-06
1.30654e-07
1.66047e-06
-1.00276e-07
2.01104e-06
-3.50568e-07
2.43428e-06
-4.23245e-07
2.73237e-06
-2.98087e-07
2.80581e-06
-7.34443e-08
2.62244e-06
1.83378e-07
2.13304e-06
4.89395e-07
1.31752e-06
8.15519e-07
3.00564e-07
1.01696e-06
-7.247e-07
1.02526e-06
-1.63796e-06
9.13255e-07
-2.4045e-06
7.66546e-07
-2.99441e-06
5.89904e-07
2.87566e-07
-3.28197e-06
-7.56657e-08
4.60295e-07
-2.25886e-07
4.52513e-07
-8.69233e-09
-8.53623e-08
4.09549e-07
-6.48622e-07
9.04455e-07
-9.64163e-07
1.40599e-06
-1.08291e-06
1.88852e-06
-1.09203e-06
2.34896e-06
-1.05436e-06
2.78797e-06
-1.00225e-06
3.20732e-06
-9.48276e-07
3.60883e-06
-8.96058e-07
3.9937e-06
-8.46459e-07
4.36275e-06
-7.99325e-07
4.71643e-06
-7.54133e-07
5.0547e-06
-7.1015e-07
5.37721e-06
-6.66276e-07
5.68312e-06
-6.21399e-07
5.97081e-06
-5.74437e-07
6.23852e-06
-5.23852e-07
6.48316e-06
-4.68872e-07
6.70146e-06
-4.08112e-07
6.88942e-06
-3.40171e-07
7.04154e-06
-2.6545e-07
7.15467e-06
-1.81618e-07
7.22408e-06
-9.13319e-08
7.24963e-06
4.37872e-09
7.23246e-06
1.07762e-07
7.16495e-06
2.09152e-07
7.05531e-06
3.17443e-07
6.8999e-06
4.23816e-07
6.69607e-06
5.12134e-07
6.48544e-06
6.13221e-07
6.24015e-06
6.93526e-07
5.94432e-06
7.62948e-07
5.73115e-06
8.81666e-07
5.59298e-06
9.41328e-07
5.27013e-06
9.81803e-07
4.61895e-06
1.06335e-06
3.8101e-06
9.58514e-07
3.12967e-06
6.41272e-07
2.71643e-06
3.27234e-07
2.52005e-06
1.56407e-07
2.44072e-06
1.09151e-07
2.42268e-06
9.13833e-08
2.44275e-06
5.65342e-08
2.48296e-06
1.71833e-08
2.5274e-06
-5.9685e-09
2.56127e-06
1.42387e-09
2.56243e-06
5.49968e-08
2.50151e-06
1.59425e-07
2.36459e-06
2.97271e-07
2.15755e-06
4.46108e-07
1.92024e-06
5.78164e-07
1.65007e-06
6.26641e-07
1.3884e-06
5.66859e-07
1.26896e-06
1.94739e-07
1.37555e-06
-3.25429e-07
7.09068e-07
1.74513e-07
-1.24802e-06
1.54775e-06
-4.1057e-06
3.2014e-06
-6.81403e-06
3.87551e-06
-8.67852e-06
4.32359e-06
-1.0126e-05
4.06584e-06
-1.13598e-05
3.57256e-06
-1.23446e-05
2.99924e-06
-1.31334e-05
2.42969e-06
-1.37525e-05
1.92586e-06
-1.42315e-05
1.48642e-06
-1.45905e-05
1.1203e-06
-1.4846e-05
8.11526e-07
-1.5012e-05
5.54362e-07
-1.50994e-05
3.344e-07
-1.5117e-05
1.43949e-07
-1.50682e-05
-2.75388e-08
-1.49514e-05
-1.86603e-07
-1.47648e-05
-3.36692e-07
-1.45119e-05
-4.75806e-07
-1.4198e-05
-6.02597e-07
-1.38308e-05
-7.14297e-07
-1.34186e-05
-8.09189e-07
-1.29706e-05
-8.85927e-07
-1.24957e-05
-9.44771e-07
-1.20024e-05
-9.86649e-07
-1.1498e-05
-1.01336e-06
-1.09888e-05
-1.0269e-06
-1.04801e-05
-1.02945e-06
-9.97573e-06
-1.02309e-06
-9.47896e-06
-1.0098e-06
-8.99196e-06
-9.91394e-07
-8.5162e-06
-9.69438e-07
-8.05255e-06
-9.45265e-07
-7.60136e-06
-9.19951e-07
-7.16266e-06
-8.9438e-07
-6.73614e-06
-8.69225e-07
-6.32129e-06
-8.44997e-07
-5.91748e-06
-8.22054e-07
-5.52395e-06
-8.0063e-07
-5.13992e-06
-7.8087e-07
-4.76455e-06
-7.62849e-07
-4.39703e-06
-7.46597e-07
-4.03653e-06
-7.32132e-07
-3.68221e-06
-7.19449e-07
-3.33326e-06
-7.08473e-07
-2.98898e-06
-6.98952e-07
-2.64892e-06
-6.90297e-07
-2.31311e-06
-6.81528e-07
-1.98224e-06
-6.71276e-07
-1.65783e-06
-6.57955e-07
-1.34213e-06
-6.40119e-07
-1.03792e-06
-6.16727e-07
-7.48067e-07
-5.87659e-07
-4.75136e-07
-5.53536e-07
-2.20942e-07
-5.15905e-07
1.38199e-08
-4.77069e-07
2.29928e-07
-4.40075e-07
4.29616e-07
-4.08003e-07
6.16836e-07
-3.83927e-07
7.97781e-07
-3.71074e-07
9.79713e-07
-3.72275e-07
1.16983e-06
-3.88495e-07
1.37447e-06
-4.17921e-07
1.59725e-06
-4.54785e-07
1.837e-06
-4.89566e-07
2.08682e-06
-5.11019e-07
2.33527e-06
-5.10086e-07
2.56941e-06
-4.83293e-07
2.77809e-06
-4.3345e-07
2.95393e-06
-3.67696e-07
3.09379e-06
-2.94646e-07
3.19827e-06
-2.22194e-07
3.27082e-06
-1.56373e-07
3.31684e-06
-1.00994e-07
3.34227e-06
-5.77755e-08
3.35243e-06
-2.69309e-08
3.35345e-06
-7.95855e-09
3.35419e-06
6.90193e-10
3.35848e-06
2.8e-09
3.35691e-06
1.22874e-09
3.34863e-06
-5.48796e-09
3.36169e-06
-1.29713e-08
3.3935e-06
-9.20842e-09
3.39144e-06
-9.33916e-09
3.38397e-06
-3.16474e-08
3.44029e-06
-1.18608e-08
3.46459e-06
5.91421e-08
3.38443e-06
3.48658e-08
3.3816e-06
1.79982e-08
3.51209e-06
3.15083e-07
3.56039e-06
7.05066e-07
3.49307e-06
7.60532e-07
3.46588e-06
4.145e-07
3.5072e-06
-3.25868e-08
3.55576e-06
-2.7023e-07
3.56987e-06
-2.72014e-07
3.51736e-06
-1.54407e-07
3.39395e-06
-1.11257e-09
3.21695e-06
1.55652e-07
2.99313e-06
2.85242e-07
2.7756e-06
3.04136e-07
2.65419e-06
1.70831e-07
2.60698e-06
-3.77996e-09
2.55224e-06
-1.35765e-07
2.53808e-06
-2.22519e-07
2.60287e-06
-1.35002e-07
2.62816e-06
1.12577e-07
2.57701e-06
1.81797e-07
2.59545e-06
-1.18713e-07
2.78726e-06
-5.42382e-07
3.0572e-06
-6.93175e-07
3.20241e-06
-4.43297e-07
3.05308e-06
7.58808e-08
2.51643e-06
7.20024e-07
1.61391e-06
1.39192e-06
5.23561e-07
1.90587e-06
-5.17403e-07
2.05792e-06
-1.4028e-06
1.91066e-06
-2.15075e-06
1.6612e-06
-2.78477e-06
1.40057e-06
-3.29776e-06
1.10289e-06
6.57582e-07
-3.66777e-06
5.62994e-08
4.03996e-07
2.96288e-07
2.12524e-07
7.80007e-07
-5.69081e-07
1.24632e-06
-1.11494e-06
1.63849e-06
-1.35634e-06
1.97712e-06
-1.42154e-06
2.29602e-06
-1.41092e-06
2.61338e-06
-1.37173e-06
2.93269e-06
-1.32157e-06
3.25163e-06
-1.26721e-06
3.56749e-06
-1.21192e-06
3.87861e-06
-1.15758e-06
4.18435e-06
-1.10506e-06
4.48459e-06
-1.05437e-06
4.77928e-06
-1.00484e-06
5.06832e-06
-9.55317e-07
5.35129e-06
-9.04363e-07
5.62722e-06
-8.50374e-07
5.8948e-06
-7.91433e-07
6.15185e-06
-7.25922e-07
6.39557e-06
-6.5183e-07
6.62258e-06
-5.67179e-07
6.82811e-06
-4.7098e-07
7.00733e-06
-3.60834e-07
7.153e-06
-2.37001e-07
7.25684e-06
-9.94702e-08
7.3134e-06
5.12061e-08
7.31592e-06
2.06635e-07
7.26232e-06
3.71037e-07
7.14941e-06
5.36729e-07
6.97799e-06
6.83557e-07
6.76789e-06
8.23316e-07
6.53052e-06
9.30899e-07
6.2936e-06
9.99869e-07
6.09259e-06
1.08267e-06
5.9013e-06
1.13262e-06
5.72645e-06
1.15665e-06
5.55021e-06
1.23959e-06
5.2057e-06
1.30303e-06
4.65438e-06
1.19259e-06
4.08519e-06
8.96427e-07
3.67191e-06
5.69678e-07
3.45322e-06
3.27848e-07
3.38244e-06
1.62158e-07
3.40102e-06
3.79566e-08
3.4605e-06
-4.22924e-08
3.52325e-06
-6.87177e-08
3.56103e-06
-3.63638e-08
3.54205e-06
7.39818e-08
3.44104e-06
2.60436e-07
3.22827e-06
5.10036e-07
2.89606e-06
7.78323e-07
2.47478e-06
9.99447e-07
1.94684e-06
1.15458e-06
1.41602e-06
1.09767e-06
8.70933e-07
7.39828e-07
-4.30206e-07
9.7571e-07
-2.9415e-06
2.68581e-06
-5.66823e-06
4.27448e-06
-7.63167e-06
5.16484e-06
-9.16865e-06
5.41249e-06
-1.00809e-05
5.23584e-06
-1.07108e-05
4.69576e-06
-1.12517e-05
4.11344e-06
-1.17242e-05
3.47169e-06
-1.21643e-05
2.86988e-06
-1.25465e-05
2.30804e-06
-1.2867e-05
1.80693e-06
-1.31138e-05
1.36705e-06
-1.32886e-05
9.86342e-07
-1.33935e-05
6.59221e-07
-1.34338e-05
3.74744e-07
-1.34124e-05
1.22552e-07
-1.33299e-05
-1.10021e-07
-1.31859e-05
-3.30665e-07
-1.29796e-05
-5.42995e-07
-1.27108e-05
-7.44607e-07
-1.23824e-05
-9.30919e-07
-1.20013e-05
-1.09547e-06
-1.15764e-05
-1.23403e-06
-1.11183e-05
-1.34404e-06
-1.06371e-05
-1.42598e-06
-1.01422e-05
-1.48159e-06
-9.64145e-06
-1.51406e-06
-9.14162e-06
-1.52673e-06
-8.64787e-06
-1.5232e-06
-8.16416e-06
-1.50679e-06
-7.69324e-06
-1.48073e-06
-7.2367e-06
-1.44793e-06
-6.79523e-06
-1.41091e-06
-6.36882e-06
-1.37168e-06
-5.95697e-06
-1.3318e-06
-5.55891e-06
-1.29245e-06
-5.17367e-06
-1.25447e-06
-4.80023e-06
-1.21843e-06
-4.43759e-06
-1.1847e-06
-4.08475e-06
-1.15347e-06
-3.74076e-06
-1.12486e-06
-3.40473e-06
-1.09888e-06
-3.07581e-06
-1.07552e-06
-2.75313e-06
-1.0548e-06
-2.43584e-06
-1.03674e-06
-2.12301e-06
-1.0213e-06
-1.81372e-06
-1.00824e-06
-1.50724e-06
-9.96777e-07
-1.20333e-06
-9.85437e-07
-9.02514e-07
-9.72097e-07
-6.06335e-07
-9.54134e-07
-3.17393e-07
-9.29061e-07
-3.89407e-08
-8.95179e-07
2.25742e-07
-8.52342e-07
4.74232e-07
-8.02026e-07
7.05499e-07
-7.47172e-07
9.19587e-07
-6.91158e-07
1.11719e-06
-6.37673e-07
1.30036e-06
-5.91177e-07
1.47312e-06
-5.56691e-07
1.64106e-06
-5.39005e-07
1.81104e-06
-5.42255e-07
1.99116e-06
-5.68617e-07
2.1893e-06
-6.16064e-07
2.4102e-06
-6.75682e-07
2.65158e-06
-7.30949e-07
2.90214e-06
-7.6158e-07
3.14377e-06
-7.51712e-07
3.35766e-06
-6.97186e-07
3.5307e-06
-6.06492e-07
3.65815e-06
-4.95147e-07
3.74206e-06
-3.78548e-07
3.78791e-06
-2.68053e-07
3.80224e-06
-1.70703e-07
3.7917e-06
-9.04471e-08
3.76324e-06
-2.93146e-08
3.72374e-06
1.25672e-08
3.67823e-06
3.75481e-08
3.63018e-06
4.87437e-08
3.5848e-06
4.81764e-08
3.54649e-06
3.95462e-08
3.51241e-06
2.859e-08
3.48196e-06
1.74794e-08
3.46367e-06
9.08108e-09
3.45041e-06
3.91373e-09
3.42959e-06
-1.08207e-08
3.43329e-06
-1.55608e-08
3.46643e-06
2.59966e-08
3.45547e-06
4.58328e-08
3.44826e-06
2.5202e-08
3.60627e-06
1.57078e-07
3.87337e-06
4.37967e-07
4.09345e-06
5.40444e-07
4.21154e-06
2.96417e-07
4.25038e-06
-7.14275e-08
4.27017e-06
-2.90019e-07
4.32409e-06
-3.25933e-07
4.42672e-06
-2.57043e-07
4.51431e-06
-8.87027e-08
4.50248e-06
1.67483e-07
4.39253e-06
3.95193e-07
4.22527e-06
4.71399e-07
4.00851e-06
3.87589e-07
3.74689e-06
2.57843e-07
3.4492e-06
1.61918e-07
3.16175e-06
6.49296e-08
2.96973e-06
5.70216e-08
2.84299e-06
2.39314e-07
2.71575e-06
3.0904e-07
2.66463e-06
-6.75903e-08
2.75552e-06
-6.33275e-07
2.87565e-06
-8.13307e-07
2.8334e-06
-4.01044e-07
2.49174e-06
4.17544e-07
1.82214e-06
1.38962e-06
9.33928e-07
2.28013e-06
3.14708e-08
2.80833e-06
-7.62531e-07
2.85192e-06
-1.46697e-06
2.61511e-06
-2.11693e-06
2.31115e-06
-2.70942e-06
1.99306e-06
-3.22122e-06
1.61469e-06
1.09303e-06
-3.65667e-06
1.43939e-07
2.60057e-07
8.10877e-07
-4.54414e-07
1.36274e-06
-1.12095e-06
1.70332e-06
-1.45551e-06
1.93399e-06
-1.58701e-06
2.13931e-06
-1.62685e-06
2.34887e-06
-1.62048e-06
2.56219e-06
-1.58505e-06
2.77223e-06
-1.53161e-06
2.97549e-06
-1.47047e-06
3.17273e-06
-1.40916e-06
3.36693e-06
-1.35179e-06
3.56139e-06
-1.29952e-06
3.75865e-06
-1.25163e-06
3.96029e-06
-1.20648e-06
4.16706e-06
-1.16209e-06
4.37899e-06
-1.1163e-06
4.59552e-06
-1.0669e-06
4.81579e-06
-1.01171e-06
5.03852e-06
-9.48654e-07
5.26217e-06
-8.75474e-07
5.48515e-06
-7.9016e-07
5.70495e-06
-6.90785e-07
5.91892e-06
-5.74801e-07
6.12266e-06
-4.4074e-07
6.30967e-06
-2.86478e-07
6.47256e-06
-1.11688e-07
6.59921e-06
7.99877e-08
6.67879e-06
2.91455e-07
6.70343e-06
5.12091e-07
6.66419e-06
7.22797e-07
6.56475e-06
9.22753e-07
6.41381e-06
1.08184e-06
6.21599e-06
1.1977e-06
5.99005e-06
1.30862e-06
5.77217e-06
1.3505e-06
5.62496e-06
1.30386e-06
5.54806e-06
1.31649e-06
5.4262e-06
1.42489e-06
5.18085e-06
1.43794e-06
4.84063e-06
1.23665e-06
4.51009e-06
9.00217e-07
4.28705e-06
5.50892e-07
4.20019e-06
2.49015e-07
4.22225e-06
1.58945e-08
4.31054e-06
-1.3058e-07
4.41001e-06
-1.68191e-07
4.45717e-06
-8.35217e-08
4.40244e-06
1.2871e-07
4.20395e-06
4.5893e-07
3.83089e-06
8.83097e-07
3.28095e-06
1.32827e-06
2.54336e-06
1.73704e-06
1.66675e-06
2.03119e-06
6.91638e-07
2.07278e-06
-7.08852e-07
2.14032e-06
-3.0838e-06
3.35065e-06
-5.51805e-06
5.12006e-06
-7.34301e-06
6.09944e-06
-8.51603e-06
6.33786e-06
-9.2835e-06
6.17996e-06
-9.75319e-06
5.70552e-06
-1.01392e-05
5.08174e-06
-1.04729e-05
4.44718e-06
-1.07782e-05
3.77701e-06
-1.10516e-05
3.14321e-06
-1.12746e-05
2.53112e-06
-1.14464e-05
1.97874e-06
-1.15646e-05
1.48517e-06
-1.16387e-05
1.06048e-06
-1.16749e-05
6.9539e-07
-1.16791e-05
3.78935e-07
-1.16495e-05
9.29435e-08
-1.15796e-05
-1.79887e-07
-1.14583e-05
-4.5194e-07
-1.12746e-05
-7.2676e-07
-1.1021e-05
-9.98191e-07
-1.06978e-05
-1.25405e-06
-1.03122e-05
-1.48108e-06
-9.87546e-06
-1.67081e-06
-9.39978e-06
-1.81971e-06
-8.89696e-06
-1.9288e-06
-8.37732e-06
-2.00124e-06
-7.8498e-06
-2.04159e-06
-7.32212e-06
-2.05441e-06
-6.80106e-06
-2.04426e-06
-6.29253e-06
-2.01532e-06
-5.80139e-06
-1.97187e-06
-5.3312e-06
-1.91812e-06
-4.88407e-06
-1.85804e-06
-4.46081e-06
-1.79493e-06
-4.0611e-06
-1.7315e-06
-3.68376e-06
-1.66979e-06
-3.32692e-06
-1.61131e-06
-2.98843e-06
-1.55692e-06
-2.66606e-06
-1.50707e-06
-2.3577e-06
-1.46184e-06
-2.06144e-06
-1.42111e-06
-1.77562e-06
-1.38469e-06
-1.4988e-06
-1.35234e-06
-1.22967e-06
-1.32394e-06
-9.66862e-07
-1.29955e-06
-7.08886e-07
-1.27928e-06
-4.53956e-07
-1.26317e-06
-2.00191e-07
-1.25054e-06
5.39559e-08
-1.23958e-06
3.08969e-07
-1.22711e-06
5.63493e-07
-1.20866e-06
8.13942e-07
-1.17951e-06
1.05497e-06
-1.1362e-06
1.2805e-06
-1.07788e-06
1.4853e-06
-1.00682e-06
1.66654e-06
-9.28409e-07
1.82566e-06
-8.50276e-07
1.96792e-06
-7.79933e-07
2.09978e-06
-7.23044e-07
2.22724e-06