/*--------------------------------*- C++ -*----------------------------------*\
  =========                 |
  \\      /  F ield         | OpenFOAM: The Open Source CFD Toolbox
   \\    /   O peration     | Website:  https://openfoam.org
    \\  /    A nd           | Version:  6
     \\/     M anipulation  |
\*---------------------------------------------------------------------------*/
FoamFile
{
    version     2.0;
    format      ascii;
    class       surfaceScalarField;
    location    "0.45";
    object      phi_0;
}
// * * * * * * * * * * * * * * * * * * * * * * * * * * * * * * * * * * * * * //

dimensions      [0 3 -1 0 0 0 0];

internalField   nonuniform List<scalar> 
24170
(
3.04911e-06
4.56327e-08
2.97068e-06
7.84292e-08
2.89139e-06
7.9293e-08
2.80985e-06
8.15427e-08
2.72228e-06
8.7569e-08
2.63406e-06
8.8218e-08
2.55185e-06
8.2208e-08
2.48039e-06
7.1457e-08
2.42048e-06
5.99176e-08
2.37049e-06
4.99893e-08
2.32664e-06
4.38433e-08
2.28691e-06
3.97327e-08
2.24912e-06
3.77932e-08
2.21812e-06
3.09944e-08
2.19503e-06
2.30901e-08
2.185e-06
1.00348e-08
2.19952e-06
-1.45249e-08
-5.4199e-08
2.25372e-06
3.39545e-06
2.89867e-08
3.43859e-06
3.52872e-08
3.46601e-06
5.18729e-08
3.47718e-06
7.03703e-08
3.48349e-06
8.12626e-08
3.4863e-06
8.54053e-08
3.48307e-06
8.54423e-08
3.47541e-06
7.91113e-08
3.46847e-06
6.68579e-08
3.46638e-06
5.20854e-08
3.47005e-06
4.01686e-08
3.47773e-06
3.20517e-08
3.4874e-06
2.81236e-08
3.4983e-06
2.00931e-08
3.51263e-06
8.76471e-09
3.53163e-06
-8.96909e-09
3.56071e-06
-4.35995e-08
-8.76357e-08
3.59415e-06
3.62028e-06
7.74563e-08
3.60394e-06
5.16251e-08
3.65037e-06
5.43932e-09
3.70424e-06
1.65009e-08
3.73942e-06
4.60848e-08
3.75694e-06
6.78824e-08
3.76659e-06
7.57959e-08
3.77473e-06
7.09703e-08
3.78289e-06
5.86968e-08
3.79137e-06
4.36072e-08
3.80188e-06
2.9655e-08
3.81612e-06
1.78214e-08
3.83522e-06
9.01445e-09
3.85769e-06
-2.37654e-09
3.88324e-06
-1.67797e-08
3.91297e-06
-3.87049e-08
3.94149e-06
-7.21127e-08
-1.1069e-07
3.96454e-06
3.88166e-06
5.3747e-08
3.92406e-06
9.22313e-09
3.9415e-06
-1.20009e-08
3.94352e-06
1.4485e-08
3.9411e-06
4.85006e-08
3.95018e-06
5.88088e-08
3.97431e-06
5.16608e-08
4.00163e-06
4.36557e-08
4.01928e-06
4.10404e-08
4.02431e-06
3.85778e-08
4.02336e-06
3.06117e-08
4.02532e-06
1.58602e-08
4.03644e-06
-2.10921e-09
4.05718e-06
-2.31177e-08
4.08667e-06
-4.62699e-08
4.12142e-06
-7.34498e-08
4.15511e-06
-1.05808e-07
-1.4044e-07
4.18486e-06
4.17162e-06
1.02782e-07
4.16726e-06
1.35845e-08
4.17407e-06
-1.88045e-08
4.19738e-06
-8.83175e-09
4.23036e-06
1.55189e-08
4.25977e-06
2.9399e-08
4.28594e-06
2.54926e-08
4.31379e-06
1.58065e-08
4.34371e-06
1.11224e-08
4.37061e-06
1.16749e-08
4.3881e-06
1.31274e-08
4.39311e-06
1.08421e-08
4.38907e-06
1.93211e-09
4.38317e-06
-1.72101e-08
4.38327e-06
-4.63757e-08
4.39238e-06
-8.25536e-08
4.40955e-06
-1.22981e-07
-1.64797e-07
4.43391e-06
4.41594e-06
7.46965e-08
4.45387e-06
-2.43372e-08
4.47702e-06
-4.1959e-08
4.50015e-06
-3.19653e-08
4.53715e-06
-2.14806e-08
4.57557e-06
-9.02003e-09
4.60144e-06
-3.77287e-10
4.61661e-06
6.38828e-10
4.63231e-06
-4.57619e-09
4.65551e-06
-1.15307e-08
4.68441e-06
-1.5769e-08
4.71257e-06
-1.73167e-08
4.73516e-06
-2.06641e-08
4.75011e-06
-3.21543e-08
4.75913e-06
-5.54002e-08
4.76526e-06
-8.86776e-08
4.77209e-06
-1.29816e-07
-1.73459e-07
4.78075e-06
4.79691e-06
1.65622e-07
4.7656e-06
6.97653e-09
4.75671e-06
-3.30676e-08
4.76155e-06
-3.68118e-08
4.79228e-06
-5.2202e-08
4.84477e-06
-6.15117e-08
4.90427e-06
-5.98787e-08
4.95526e-06
-5.03498e-08
4.98768e-06
-3.70025e-08
5.00024e-06
-2.40864e-08
4.9991e-06
-1.46307e-08
4.99269e-06
-1.09017e-08
4.98825e-06
-1.62286e-08
4.98972e-06
-3.36229e-08
4.99764e-06
-6.33254e-08
5.01101e-06
-1.02039e-07
5.02674e-06
-1.45555e-07
-1.89419e-07
5.0427e-06
5.24913e-06
1.19006e-07
5.17976e-06
7.63453e-08
5.17762e-06
-3.09275e-08
5.18974e-06
-4.89349e-08
5.19432e-06
-5.67772e-08
5.20931e-06
-7.65064e-08
5.24233e-06
-9.28942e-08
5.28494e-06
-9.29627e-08
5.32334e-06
-7.54064e-08
5.34849e-06
-4.92332e-08
5.36039e-06
-2.65353e-08
5.36626e-06
-1.67679e-08
5.37424e-06
-2.42138e-08
5.38889e-06
-4.82652e-08
5.4096e-06
-8.40339e-08
5.43288e-06
-1.25323e-07
5.45417e-06
-1.66842e-07
-2.05824e-07
5.47057e-06
5.60851e-06
7.51991e-08
5.57061e-06
1.14246e-07
5.51469e-06
2.49848e-08
5.48324e-06
-1.74799e-08
5.48823e-06
-6.17693e-08
5.52529e-06
-1.13571e-07
5.58532e-06
-1.52917e-07
5.65485e-06
-1.62492e-07
5.71779e-06
-1.38349e-07
5.76102e-06
-9.24683e-08
5.77985e-06
-4.53593e-08
5.77906e-06
-1.59782e-08
5.76854e-06
-1.36979e-08
5.75798e-06
-3.77024e-08
5.75449e-06
-8.05451e-08
5.76022e-06
-1.31054e-07
5.77593e-06
-1.8255e-07
-2.27271e-07
5.79738e-06
5.79667e-06
4.0626e-08
5.8946e-06
1.63176e-08
5.96118e-06
-4.15967e-08
5.98144e-06
-3.77331e-08
5.97321e-06
-5.35474e-08
5.9566e-06
-9.69524e-08
5.94385e-06
-1.40175e-07
5.9399e-06
-1.58543e-07
5.94558e-06
-1.44021e-07
5.95816e-06
-1.05049e-07
5.97313e-06
-6.03338e-08
5.98762e-06
-3.04668e-08
6.00208e-06
-2.81532e-08
6.01785e-06
-5.34766e-08
6.03582e-06
-9.85173e-08
6.05582e-06
-1.51051e-07
6.07738e-06
-2.04112e-07
-2.51944e-07
6.10205e-06
6.16928e-06
7.2613e-08
6.25666e-06
-7.10666e-08
6.30981e-06
-9.47429e-08
6.36215e-06
-9.00789e-08
6.41227e-06
-1.03662e-07
6.44039e-06
-1.25074e-07
6.4374e-06
-1.37182e-07
6.41308e-06
-1.34227e-07
6.3885e-06
-1.19441e-07
6.38236e-06
-9.89062e-08
6.40193e-06
-7.99065e-08
6.44212e-06
-7.06521e-08
6.49062e-06
-7.66529e-08
6.53464e-06
-9.74976e-08
6.5663e-06
-1.30183e-07
6.58434e-06
-1.69089e-07
6.59218e-06
-2.11948e-07
-2.54562e-07
6.5948e-06
5.70505e-06
-6.49859e-08
5.69662e-06
-6.26412e-08
5.64881e-06
-4.69308e-08
5.62391e-06
-6.51813e-08
5.61372e-06
-9.34649e-08
5.60829e-06
-1.19649e-07
5.60856e-06
-1.37448e-07
5.61915e-06
-1.44817e-07
5.64222e-06
-1.42511e-07
5.67548e-06
-1.32172e-07
5.71347e-06
-1.17892e-07
5.74969e-06
-1.06877e-07
5.77943e-06
-1.06391e-07
5.80219e-06
-1.20258e-07
5.81975e-06
-1.47739e-07
5.83623e-06
-1.85571e-07
5.85291e-06
-2.28628e-07
-2.72899e-07
5.87125e-06
6.85724e-06
-5.69165e-08
6.86978e-06
-7.51784e-08
6.91764e-06
-9.47921e-08
6.98303e-06
-1.30573e-07
7.0236e-06
-1.34036e-07
7.02095e-06
-1.16999e-07
6.99497e-06
-1.11466e-07
6.97592e-06
-1.25771e-07
6.97842e-06
-1.45008e-07
6.99992e-06
-1.53673e-07
7.03206e-06
-1.50026e-07
7.06835e-06
-1.43171e-07
7.10624e-06
-1.44277e-07
7.14608e-06
-1.60099e-07
7.18749e-06
-1.89156e-07
7.22859e-06
-2.26671e-07
7.26486e-06
-2.64896e-07
-2.98235e-07
7.2902e-06
8.3347e-06
-3.15378e-08
8.3942e-06
-1.34679e-07
8.4986e-06
-1.99188e-07
8.55247e-06
-1.84449e-07
8.55601e-06
-1.37571e-07
8.54659e-06
-1.0758e-07
8.54914e-06
-1.14022e-07
8.5653e-06
-1.41931e-07
8.5839e-06
-1.63606e-07
8.59555e-06
-1.65324e-07
8.59962e-06
-1.5409e-07
8.60193e-06
-1.45484e-07
8.60881e-06
-1.5116e-07
8.62291e-06
-1.742e-07
8.64278e-06
-2.09024e-07
8.66378e-06
-2.47673e-07
8.68149e-06
-2.82603e-07
-3.09453e-07
8.69271e-06
1.03155e-05
-1.02575e-07
1.03587e-05
-1.77868e-07
1.03523e-05
-1.92803e-07
1.03249e-05
-1.56991e-07
1.03112e-05
-1.239e-07
1.03287e-05
-1.25074e-07
1.03711e-05
-1.5644e-07
1.04195e-05
-1.90304e-07
1.04583e-05
-2.02441e-07
1.04831e-05
-1.9005e-07
1.04977e-05
-1.68754e-07
1.05094e-05
-1.57165e-07
1.05225e-05
-1.64265e-07
1.05376e-05
-1.89256e-07
1.05521e-05
-2.23586e-07
1.05635e-05
-2.59026e-07
1.05701e-05
-2.89193e-07
-3.11134e-07
1.05718e-05
1.24385e-05
-2.72465e-07
1.25232e-05
-2.62553e-07
1.25791e-05
-2.4877e-07
1.26234e-05
-2.01228e-07
1.26571e-05
-1.57665e-07
1.2683e-05
-1.50967e-07
1.26945e-05
-1.67892e-07
1.26877e-05
-1.83527e-07
1.2671e-05
-1.85687e-07
1.26594e-05
-1.78525e-07
1.26645e-05
-1.73846e-07
1.26883e-05
-1.80895e-07
1.27249e-05
-2.00918e-07
1.27653e-05
-2.29601e-07
1.2801e-05
-2.59319e-07
1.2827e-05
-2.85009e-07
1.28409e-05
-3.03104e-07
-3.14397e-07
1.28441e-05
1.53288e-05
1.27243e-07
1.53343e-05
-2.68018e-07
1.5406e-05
-3.20542e-07
1.54602e-05
-2.55384e-07
1.54951e-05
-1.92589e-07
1.55026e-05
-1.58422e-07
1.54772e-05
-1.42542e-07
1.54258e-05
-1.32083e-07
1.53655e-05
-1.25382e-07
1.53163e-05
-1.29379e-07
1.52929e-05
-1.50449e-07
1.52992e-05
-1.87132e-07
1.5329e-05
-2.30792e-07
1.53697e-05
-2.7021e-07
1.54069e-05
-2.96554e-07
1.54301e-05
-3.08207e-07
1.54336e-05
-3.06571e-07
-2.98358e-07
1.54175e-05
1.88121e-05
-1.87033e-07
1.87781e-05
-2.34019e-07
1.86578e-05
-2.00298e-07
1.85578e-05
-1.55375e-07
1.85156e-05
-1.50378e-07
1.85387e-05
-1.81488e-07
1.86054e-05
-2.09223e-07
1.86818e-05
-2.08544e-07
1.87447e-05
-1.88239e-07
1.87863e-05
-1.71012e-07
1.88071e-05
-1.71264e-07
1.88089e-05
-1.88926e-07
1.87931e-05
-2.1494e-07
1.87614e-05
-2.38558e-07
1.87173e-05
-2.52456e-07
1.86654e-05
-2.56229e-07
1.86113e-05
-2.52482e-07
-2.4661e-07
1.85595e-05
2.3241e-05
-1.27785e-07
2.30981e-05
-9.11031e-08
2.29109e-05
-1.30538e-08
2.28245e-05
-6.90049e-08
2.28474e-05
-1.73262e-07
2.2901e-05
-2.35142e-07
2.29304e-05
-2.38558e-07
2.29295e-05
-2.07649e-07
2.29125e-05
-1.71249e-07
2.28878e-05
-1.46331e-07
2.28546e-05
-1.38092e-07
2.28111e-05
-1.45405e-07
2.27597e-05
-1.63512e-07
2.2708e-05
-1.86911e-07
2.26666e-05
-2.11004e-07
2.26435e-05
-2.33184e-07
2.26437e-05
-2.52705e-07
-2.70736e-07
2.26679e-05
1.66366e-05
-2.79127e-07
1.68438e-05
-2.9828e-07
1.69986e-05
-1.67828e-07
1.70705e-05
-1.40951e-07
1.70698e-05
-1.72532e-07
1.70363e-05
-2.01715e-07
1.69961e-05
-1.98305e-07
1.69594e-05
-1.70913e-07
1.69325e-05
-1.44393e-07
1.6919e-05
-1.32827e-07
1.69159e-05
-1.34948e-07
1.69147e-05
-1.44292e-07
1.69074e-05
-1.56152e-07
1.68902e-05
-1.69737e-07
1.68653e-05
-1.86111e-07
1.68376e-05
-2.05505e-07
1.68116e-05
-2.26706e-07
-2.44959e-07
1.67859e-05
1.48413e-05
-3.58118e-07
1.48186e-05
-2.75489e-07
1.47911e-05
-1.40355e-07
1.4752e-05
-1.01842e-07
1.47244e-05
-1.44981e-07
1.4716e-05
-1.93274e-07
1.47307e-05
-2.13058e-07
1.4768e-05
-2.082e-07
1.48164e-05
-1.92725e-07
1.48616e-05
-1.78103e-07
1.48958e-05
-1.69132e-07
1.49159e-05
-1.64419e-07
1.49205e-05
-1.60705e-07
1.49069e-05
-1.56188e-07
1.4873e-05
-1.52158e-07
1.48187e-05
-1.51181e-07
1.47464e-05
-1.54392e-07
-1.64604e-07
1.4666e-05
1.31834e-05
-1.26589e-07
1.29693e-05
-6.13568e-08
1.2917e-05
-8.80525e-08
1.2897e-05
-8.18583e-08
1.28188e-05
-6.6753e-08
1.26953e-05
-6.97811e-08
1.25931e-05
-1.10915e-07
1.25617e-05
-1.76799e-07
1.26035e-05
-2.34476e-07
1.26864e-05
-2.60962e-07
1.27707e-05
-2.53522e-07
1.28286e-05
-2.22297e-07
1.2849e-05
-1.81127e-07
1.28346e-05
-1.41749e-07
1.27936e-05
-1.11142e-07
1.27353e-05
-9.28414e-08
1.26667e-05
-8.58491e-08
-8.99408e-08
1.2592e-05
1.11774e-05
5.26167e-08
1.12061e-05
-9.01146e-08
1.12686e-05
-1.50501e-07
1.12949e-05
-1.08216e-07
1.12934e-05
-6.52137e-08
1.12951e-05
-7.15329e-08
1.13032e-05
-1.18949e-07
1.12982e-05
-1.71799e-07
1.12662e-05
-2.02543e-07
1.12118e-05
-2.06527e-07
1.11513e-05
-1.93008e-07
1.11012e-05
-1.72206e-07
1.10707e-05
-1.50652e-07
1.10614e-05
-1.32411e-07
1.10688e-05
-1.18523e-07
1.10855e-05
-1.09615e-07
1.11036e-05
-1.03924e-07
-9.92477e-08
1.11129e-05
9.62298e-06
-3.14651e-08
9.60009e-06
-6.7229e-08
9.5892e-06
-1.39606e-07
9.6146e-06
-1.33621e-07
9.65744e-06
-1.08058e-07
9.70169e-06
-1.1578e-07
9.72229e-06
-1.39543e-07
9.70183e-06
-1.51345e-07
9.64575e-06
-1.46463e-07
9.57606e-06
-1.36834e-07
9.51596e-06
-1.32911e-07
9.479e-06
-1.35248e-07
9.46682e-06
-1.38473e-07
9.47198e-06
-1.37567e-07
9.4838e-06
-1.30343e-07
9.49295e-06
-1.18765e-07
9.49391e-06
-1.04883e-07
-9.2819e-08
9.48748e-06
8.54547e-06
-1.43357e-07
8.59328e-06
-1.15045e-07
8.53414e-06
-8.04683e-08
8.4747e-06
-7.4175e-08
8.4531e-06
-8.64564e-08
8.45699e-06
-1.19672e-07
8.46281e-06
-1.45363e-07
8.45632e-06
-1.4486e-07
8.43491e-06
-1.25052e-07
8.40185e-06
-1.03774e-07
8.36166e-06
-9.27162e-08
8.31881e-06
-9.23982e-08
8.27746e-06
-9.71284e-08
8.24124e-06
-1.01343e-07
8.21319e-06
-1.02289e-07
8.19487e-06
-1.00445e-07
8.18716e-06
-9.71759e-08
-9.4523e-08
8.18886e-06
7.43761e-06
-1.97178e-07
7.4447e-06
-1.22142e-07
7.41939e-06
-5.51563e-08
7.41128e-06
-6.60661e-08
7.41142e-06
-8.65941e-08
7.38967e-06
-9.79246e-08
7.34753e-06
-1.03217e-07
7.30858e-06
-1.05911e-07
7.29066e-06
-1.07138e-07
7.29322e-06
-1.06332e-07
7.30296e-06
-1.02457e-07
7.30598e-06
-9.54178e-08
7.29542e-06
-8.65678e-08
7.27303e-06
-7.89531e-08
7.24584e-06
-7.50981e-08
7.22134e-06
-7.59476e-08
7.20485e-06
-8.06803e-08
-8.54082e-08
7.19573e-06
6.3616e-06
-1.84856e-07
6.34039e-06
-1.00937e-07
6.36642e-06
-8.11818e-08
6.38805e-06
-8.76998e-08
6.38883e-06
-8.73759e-08
6.37703e-06
-8.61256e-08
6.36379e-06
-8.9974e-08
6.35276e-06
-9.48842e-08
6.34202e-06
-9.63998e-08
6.33006e-06
-9.43678e-08
6.31838e-06
-9.07789e-08
6.31011e-06
-8.71501e-08
6.30719e-06
-8.36469e-08
6.30861e-06
-8.03679e-08
6.31153e-06
-7.80169e-08
6.31308e-06
-7.74964e-08
6.31182e-06
-7.942e-08
-8.33088e-08
6.30972e-06
5.5324e-06
-1.16761e-07
5.56458e-06
-1.33125e-07
5.58514e-06
-1.01737e-07
5.57866e-06
-8.12186e-08
5.56395e-06
-7.26705e-08
5.55899e-06
-8.11644e-08
5.56317e-06
-9.41555e-08
5.56871e-06
-1.00424e-07
5.57011e-06
-9.77934e-08
5.5664e-06
-9.06602e-08
5.56013e-06
-8.45138e-08
5.55466e-06
-8.16768e-08
5.5514e-06
-8.03836e-08
5.54836e-06
-7.73332e-08
5.54161e-06
-7.12666e-08
5.52799e-06
-6.38784e-08
5.50646e-06
-5.78827e-08
-5.62084e-08
5.47936e-06
4.87292e-06
-6.55959e-08
4.87147e-06
-1.3167e-07
4.90199e-06
-1.32261e-07
4.94805e-06
-1.27277e-07
4.98286e-06
-1.07484e-07
4.98697e-06
-8.52783e-08
4.96221e-06
-6.93921e-08
4.92295e-06
-6.1158e-08
4.88311e-06
-5.79594e-08
4.85052e-06
-5.80719e-08
4.82726e-06
-6.12503e-08
4.81197e-06
-6.6384e-08
4.8021e-06
-7.05172e-08
4.79474e-06
-6.99683e-08
4.78699e-06
-6.35248e-08
4.77617e-06
-5.30534e-08
4.75955e-06
-4.12686e-08
-3.3799e-08
4.73715e-06
4.34128e-06
4.20961e-06
4.07735e-06
3.95007e-06
3.84259e-06
3.75731e-06
3.68792e-06
3.62676e-06
3.5688e-06
3.51073e-06
3.44948e-06
3.38309e-06
3.31258e-06
3.24261e-06
3.17908e-06
3.12603e-06
3.08476e-06
3.05096e-06
-3.84462e-07
3.84462e-07
-6.86713e-07
3.02251e-07
-8.17419e-07
1.30705e-07
-5.85809e-07
-2.31609e-07
-1.15662e-07
-4.70148e-07
4.66084e-07
-5.81746e-07
1.07555e-06
-6.0947e-07
1.66925e-06
-5.93696e-07
2.2322e-06
-5.62956e-07
2.76085e-06
-5.28649e-07
3.25515e-06
-4.94298e-07
3.7165e-06
-4.61349e-07
4.14654e-06
-4.3004e-07
4.5467e-06
-4.00156e-07
4.91822e-06
-3.71524e-07
5.26154e-06
-3.43314e-07
5.57646e-06
-3.14926e-07
5.86251e-06
-2.86053e-07
6.11784e-06
-2.55329e-07
6.34117e-06
-2.23328e-07
6.52993e-06
-1.88763e-07
6.68105e-06
-1.51118e-07
6.79322e-06
-1.1217e-07
6.86046e-06
-6.72376e-08
6.88128e-06
-2.08185e-08
6.85005e-06
3.12289e-08
6.75844e-06
9.16114e-08
6.61604e-06
1.42402e-07
6.40696e-06
2.09073e-07
6.13853e-06
2.68435e-07
5.82934e-06
3.09185e-07
5.42464e-06
4.04706e-07
4.97738e-06
4.47253e-07
4.50708e-06
4.703e-07
3.83075e-06
6.76336e-07
3.02832e-06
8.02429e-07
2.3765e-06
6.51818e-07
1.97283e-06
4.03674e-07
1.83186e-06
1.4097e-07
1.87565e-06
-4.3795e-08
1.96226e-06
-8.6609e-08
2.00145e-06
-3.91888e-08
1.97143e-06
3.00184e-08
1.89938e-06
7.20497e-08
1.82528e-06
7.41033e-08
1.77082e-06
5.44562e-08
1.73505e-06
3.57719e-08
1.70176e-06
3.32927e-08
1.64663e-06
5.51298e-08
1.54808e-06
9.85504e-08
1.38645e-06
1.61632e-07
1.14457e-06
2.41878e-07
7.99948e-07
3.44619e-07
4.39482e-07
3.60466e-07
1.29964e-07
3.09518e-07
5.19014e-08
7.80628e-08
2.69694e-07
-2.17793e-07
7.61473e-07
-4.91778e-07
1.17027e-06
-4.088e-07
8.2532e-07
3.44953e-07
-3.43413e-07
1.16873e-06
-2.80179e-06
2.45837e-06
-5.41958e-06
2.61779e-06
-7.75876e-06
2.33918e-06
-9.77424e-06
2.01549e-06
-1.14169e-05
1.64263e-06
-1.27257e-05
1.30878e-06
-1.37353e-05
1.00967e-06
-1.44987e-05
7.63377e-07
-1.50567e-05
5.58002e-07
-1.54468e-05
3.90055e-07
-1.56953e-05
2.48587e-07
-1.58233e-05
1.27925e-07
-1.58459e-05
2.25906e-08
-1.57774e-05
-6.84842e-08
-1.56286e-05
-1.48816e-07
-1.54067e-05
-2.21833e-07
-1.51187e-05
-2.88005e-07
-1.4772e-05
-3.46677e-07
-1.4375e-05
-3.97035e-07
-1.39365e-05
-4.38466e-07
-1.34656e-05
-4.70909e-07
-1.29709e-05
-4.9472e-07
-1.24602e-05
-5.10674e-07
-1.19406e-05
-5.19602e-07
-1.1418e-05
-5.22604e-07
-1.08974e-05
-5.20654e-07
-1.03826e-05
-5.14808e-07
-9.87658e-06
-5.0599e-07
-9.38152e-06
-4.9506e-07
-8.89876e-06
-4.82755e-07
-8.42908e-06
-4.69683e-07
-7.97271e-06
-4.56367e-07
-7.52952e-06
-4.43195e-07
-7.09904e-06
-4.30478e-07
-6.68061e-06
-4.18428e-07
-6.27343e-06
-4.07186e-07
-5.87658e-06
-3.96849e-07
-5.48912e-06
-3.87459e-07
-5.11008e-06
-3.7904e-07
-4.73848e-06
-3.71601e-07
-4.37335e-06
-3.65131e-07
-4.01377e-06
-3.59571e-07
-3.65901e-06
-3.54761e-07
-3.30864e-06
-3.50372e-07
-2.96276e-06
-3.45883e-07
-2.62217e-06
-3.40589e-07
-2.28846e-06
-3.33714e-07
-1.96391e-06
-3.24544e-07
-1.65132e-06
-3.12589e-07
-1.35351e-06
-2.97813e-07
-1.07296e-06
-2.80553e-07
-8.11335e-07
-2.61623e-07
-5.69118e-07
-2.42217e-07
-3.45195e-07
-2.23922e-07
-1.36821e-07
-2.08374e-07
6.01045e-08
-1.96926e-07
2.50668e-07
-1.90564e-07
4.41695e-07
-1.91027e-07
6.40998e-07
-1.99304e-07
8.55383e-07
-2.14385e-07
1.08853e-06
-2.33144e-07
1.33931e-06
-2.50777e-07
1.60109e-06
-2.61783e-07
1.86282e-06
-2.61731e-07
2.11157e-06
-2.48752e-07
2.33556e-06
-2.23987e-07
2.52642e-06
-1.90863e-07
2.68017e-06
-1.53755e-07
2.79696e-06
-1.16785e-07
2.88004e-06
-8.30806e-08
2.93454e-06
-5.44959e-08
2.96666e-06
-3.21261e-08
2.98346e-06
-1.68005e-08
2.99061e-06
-7.14911e-09
2.98949e-06
1.12004e-09
2.9829e-06
6.59369e-09
2.98394e-06
-1.03924e-09
2.99821e-06
-1.4275e-08
2.99818e-06
3.30826e-11
2.97596e-06
2.22239e-08
2.98832e-06
-1.23632e-08
3.02737e-06
-3.90474e-08
2.98188e-06
4.5488e-08
2.89943e-06
8.24458e-08
2.94633e-06
-4.68967e-08
2.92821e-06
1.81204e-08
2.47758e-06
4.50631e-07
1.72279e-06
7.54791e-07
1.03167e-06
6.91113e-07
6.48465e-07
3.83209e-07
6.43246e-07
5.21898e-09
8.65995e-07
-2.22748e-07
1.12349e-06
-2.57497e-07
1.32966e-06
-2.0617e-07
1.45313e-06
-1.23465e-07
1.47314e-06
-2.00127e-08
1.4108e-06
6.23389e-08
1.32432e-06
8.64819e-08
1.27589e-06
4.84316e-08
1.3283e-06
-5.24093e-08
1.52006e-06
-1.9176e-07
1.75622e-06
-2.36161e-07
1.82382e-06
-6.76088e-08
1.68405e-06
1.39771e-07
1.55435e-06
1.297e-07
1.65754e-06
-1.03182e-07
2.01006e-06
-3.52522e-07
2.4326e-06
-4.22546e-07
2.72804e-06
-2.9544e-07
2.7981e-06
-7.00536e-08
2.61059e-06
1.87512e-07
2.11608e-06
4.94508e-07
1.29588e-06
8.202e-07
2.76459e-07
1.01942e-06
-7.48708e-07
1.02517e-06
-1.66054e-06
9.11832e-07
-2.42528e-06
7.64738e-07
-3.01298e-06
5.877e-07
2.84343e-07
-3.29732e-06
-7.60108e-08
4.60473e-07
-2.25713e-07
4.51954e-07
-7.02458e-09
-8.79837e-08
4.12251e-07
-6.50885e-07
9.07415e-07
-9.65311e-07
1.40872e-06
-1.08305e-06
1.89084e-06
-1.09159e-06
2.35088e-06
-1.05374e-06
2.78962e-06
-1.00169e-06
3.20885e-06
-9.47879e-07
3.61038e-06
-8.95824e-07
3.99536e-06
-8.46337e-07
4.36456e-06
-7.99241e-07
4.71842e-06
-7.54011e-07
5.05682e-06
-7.09924e-07
5.37939e-06
-6.65885e-07
5.68527e-06
-6.20802e-07
5.9728e-06
-5.73591e-07
6.2402e-06
-5.22727e-07
6.48434e-06
-4.67464e-07
6.70195e-06
-4.0638e-07
6.88898e-06
-3.38147e-07
7.03996e-06
-2.63143e-07
7.15176e-06
-1.79042e-07
7.21963e-06
-8.8688e-08
7.2437e-06
7.15547e-09
7.22492e-06
1.10393e-07
7.15584e-06
2.11481e-07
7.04511e-06
3.1981e-07
6.88831e-06
4.25235e-07
6.68428e-06
5.13215e-07
6.47447e-06
6.14509e-07
6.22809e-06
6.93633e-07
5.93356e-06
7.64834e-07
5.72559e-06
8.84309e-07
5.58637e-06
9.41642e-07
5.25281e-06
9.85387e-07
4.59139e-06
1.06509e-06
3.78242e-06
9.49938e-07
3.11106e-06
6.27572e-07
2.70834e-06
3.16111e-07
2.51896e-06
1.5019e-07
2.44388e-06
1.05096e-07
2.42937e-06
8.65629e-08
2.4529e-06
5.05678e-08
2.49633e-06
1.10252e-08
2.5436e-06
-1.14956e-08
2.57963e-06
-2.73472e-09
2.58175e-06
5.30034e-08
2.52031e-06
1.5999e-07
2.3816e-06
3.00349e-07
2.17193e-06
4.51544e-07
1.93099e-06
5.85558e-07
1.65547e-06
6.35989e-07
1.38881e-06
5.76175e-07
1.26495e-06
2.0193e-07
1.36585e-06
-3.18698e-07
6.95257e-07
1.78814e-07
-1.26504e-06
1.55149e-06
-4.12144e-06
3.20135e-06
-6.82605e-06
3.87334e-06
-8.6903e-06
4.32262e-06
-1.01385e-05
4.06599e-06
-1.13735e-05
3.57417e-06
-1.23598e-05
3.00182e-06
-1.31502e-05
2.43306e-06
-1.3771e-05
1.92959e-06
-1.42516e-05
1.49021e-06
-1.46121e-05
1.12388e-06
-1.48689e-05
8.14788e-07
-1.50361e-05
5.57282e-07
-1.51245e-05
3.37028e-07
-1.5143e-05
1.46398e-07
-1.50953e-05
-2.51623e-08
-1.49795e-05
-1.84229e-07
-1.47939e-05
-3.34415e-07
-1.45419e-05
-4.73838e-07
-1.42287e-05
-6.01197e-07
-1.38617e-05
-7.13704e-07
-1.34492e-05
-8.09566e-07
-1.30003e-05
-8.87318e-07
-1.25241e-05
-9.47101e-07
-1.20291e-05
-9.89754e-07
-1.15227e-05
-1.01702e-06
-1.10115e-05
-1.03087e-06
-1.05006e-05
-1.03351e-06
-9.99419e-06
-1.02703e-06
-9.49553e-06
-1.01346e-06
-9.00686e-06
-9.94662e-07
-8.52968e-06
-9.72244e-07
-8.06485e-06
-9.47581e-07
-7.61275e-06
-9.21784e-07
-7.17336e-06
-8.95761e-07
-6.74635e-06
-8.70206e-07
-6.33119e-06
-8.45639e-07
-5.92719e-06
-8.22426e-07
-5.53358e-06
-8.008e-07
-5.14952e-06
-7.80904e-07
-4.77417e-06
-7.62807e-07
-4.40668e-06
-7.46533e-07
-4.04619e-06
-7.32092e-07
-3.69185e-06
-7.19469e-07
-3.34284e-06
-7.08578e-07
-2.99845e-06
-6.99153e-07
-2.65824e-06
-6.90587e-07
-2.32224e-06
-6.81883e-07
-1.99117e-06
-6.71658e-07
-1.66657e-06
-6.58313e-07
-1.35071e-06
-6.40402e-07
-1.04641e-06
-6.16893e-07
-7.56531e-07
-5.87689e-07
-4.83644e-07
-5.5344e-07
-2.2954e-07
-5.15726e-07
5.1205e-09
-4.76878e-07
2.21165e-07
-4.39967e-07
4.2088e-07
-4.08089e-07
6.08276e-07
-3.84322e-07
7.896e-07
-3.71888e-07
9.72159e-07
-3.73585e-07
1.16316e-06
-3.90302e-07
1.36886e-06
-4.20091e-07
1.59274e-06
-4.57019e-07
1.8334e-06
-4.91442e-07
2.08375e-06
-5.12133e-07
2.33223e-06
-5.1021e-07
2.56593e-06
-4.82454e-07
2.77383e-06
-4.31885e-07
2.94871e-06
-3.65742e-07
3.0876e-06
-2.92638e-07
3.19121e-06
-2.20401e-07
3.26311e-06
-1.54976e-07
3.3087e-06
-1.00087e-07
3.33395e-06
-5.73803e-08
3.34417e-06
-2.70186e-08
3.34549e-06
-8.4668e-09
3.34674e-06
-1.29233e-10
3.35152e-06
1.81092e-09
3.35032e-06
1.58471e-10
3.34263e-06
-6.58257e-09
3.35655e-06
-1.38831e-08
3.38863e-06
-9.86165e-09
3.3864e-06
-1.01313e-08
3.3797e-06
-3.23511e-08
3.43674e-06
-1.15528e-08
3.45992e-06
5.92728e-08
3.37951e-06
3.35071e-08
3.37884e-06
1.87939e-08
3.51006e-06
3.19412e-07
3.55709e-06
7.07758e-07
3.48988e-06
7.58327e-07
3.4639e-06
4.09188e-07
3.50552e-06
-3.64026e-08
3.55343e-06
-2.70656e-07
3.56624e-06
-2.70313e-07
3.51216e-06
-1.52092e-07
3.38755e-06
1.15209e-09
3.20974e-06
1.57796e-07
2.98552e-06
2.8656e-07
2.76874e-06
3.03261e-07
2.64882e-06
1.68349e-07
2.60215e-06
-5.74095e-09
2.54742e-06
-1.37026e-07
2.53397e-06
-2.2271e-07
2.59868e-06
-1.3232e-07
2.6225e-06
1.15953e-07
2.57111e-06
1.81083e-07
2.5916e-06
-1.23671e-07
2.78532e-06
-5.46236e-07
3.05431e-06
-6.91536e-07
3.19538e-06
-4.36516e-07
3.03982e-06
8.55093e-08
2.49657e-06
7.30764e-07
1.58938e-06
1.4017e-06
4.97914e-07
1.91166e-06
-5.41416e-07
2.05875e-06
-1.42473e-06
1.90848e-06
-2.17099e-06
1.65809e-06
-2.80324e-06
1.39699e-06
-3.31395e-06
1.09841e-06
6.51592e-07
-3.6812e-06
5.51884e-08
4.05285e-07
2.96637e-07
2.10505e-07
7.81004e-07
-5.72351e-07
1.24715e-06
-1.11703e-06
1.63875e-06
-1.35692e-06
1.97692e-06
-1.42122e-06
2.29571e-06
-1.41038e-06
2.61336e-06
-1.37139e-06
2.93326e-06
-1.32159e-06
3.25297e-06
-1.26759e-06
3.56969e-06
-1.21254e-06
3.88168e-06
-1.15833e-06
4.18827e-06
-1.10583e-06
4.48932e-06
-1.05506e-06
4.78476e-06
-1.00537e-06
5.07449e-06
-9.55609e-07
5.35804e-06
-9.04355e-07
5.63445e-06
-8.5e-07
5.90236e-06
-7.90635e-07
6.15954e-06
-7.24646e-07
6.40317e-06
-6.50006e-07
6.6298e-06
-5.64776e-07
6.83461e-06
-4.67963e-07
7.01275e-06
-3.57175e-07
7.15685e-06
-2.3279e-07
7.25873e-06
-9.47257e-08
7.31297e-06
5.61514e-08
7.31288e-06
2.1157e-07
7.25659e-06
3.76104e-07
7.14082e-06
5.41002e-07
6.96711e-06
6.86929e-07
6.75565e-06
8.2597e-07
6.5176e-06
9.31684e-07
6.28172e-06
1.00072e-06
6.08204e-06
1.08398e-06
5.89146e-06
1.13223e-06
5.71856e-06
1.15828e-06
5.53951e-06
1.24414e-06
5.18576e-06
1.30369e-06
4.62963e-06
1.1837e-06
4.06486e-06
8.80885e-07
3.66066e-06
5.54384e-07
3.4508e-06
3.14965e-07
3.38704e-06
1.50321e-07
3.41105e-06
2.65516e-08
3.47473e-06
-5.26554e-08
3.54074e-06
-7.75054e-08
3.58083e-06
-4.28225e-08
3.56272e-06
7.11134e-08
3.46082e-06
2.61896e-07
3.24534e-06
5.15824e-07
2.90918e-06
7.87706e-07
2.48239e-06
1.01235e-06
1.94855e-06
1.16983e-06
1.41256e-06
1.11217e-06
8.59782e-07
7.54708e-07
-4.46834e-07
9.87918e-07
-2.95978e-06
2.69176e-06
-5.68466e-06
4.27638e-06
-7.64665e-06
5.16335e-06
-9.18379e-06
5.41048e-06
-1.00966e-05
5.23542e-06
-1.07276e-05
4.69697e-06
-1.12698e-05
4.11639e-06
-1.17438e-05
3.47582e-06
-1.21857e-05
2.87492e-06
-1.25695e-05
2.31346e-06
-1.28916e-05
1.8123e-06
-1.31398e-05
1.37199e-06
-1.33156e-05
9.90666e-07
-1.34212e-05
6.62886e-07
-1.34621e-05
3.77872e-07
-1.34411e-05
1.25413e-07
-1.33591e-05
-1.0715e-07
-1.32157e-05
-3.27635e-07
-1.30102e-05
-5.39914e-07
-1.27422e-05
-7.4181e-07
-1.24145e-05
-9.28897e-07
-1.20335e-05
-1.09469e-06
-1.16083e-05
-1.23479e-06
-1.11492e-05
-1.34641e-06
-1.06665e-05
-1.42983e-06
-1.01696e-05
-1.48662e-06
-9.66674e-06
-1.5199e-06
-9.16464e-06
-1.53297e-06
-8.66866e-06
-1.52949e-06
-8.18287e-06
-1.51282e-06
-7.71006e-06
-1.48626e-06
-7.25191e-06
-1.45281e-06
-6.80911e-06
-1.41505e-06
-6.38164e-06
-1.37506e-06
-5.96898e-06
-1.33444e-06
-5.57033e-06
-1.29441e-06
-5.18469e-06
-1.25585e-06
-4.81101e-06
-1.21932e-06
-4.44823e-06
-1.1852e-06
-4.09534e-06
-1.15369e-06
-3.75135e-06
-1.12489e-06
-3.41534e-06
-1.09882e-06
-3.08643e-06
-1.07545e-06
-2.76375e-06
-1.05477e-06
-2.44641e-06
-1.03681e-06
-2.13348e-06
-1.02151e-06
-1.82404e-06
-1.0086e-06
-1.51734e-06
-9.97278e-07
-1.21318e-06
-9.86043e-07
-9.12098e-07
-9.72744e-07
-6.15667e-07
-9.54744e-07
-3.26516e-07
-9.29553e-07
-4.7918e-08
-8.95491e-07
2.16846e-07
-8.52453e-07
4.65365e-07
-8.01959e-07
6.96626e-07
-7.46988e-07
9.10695e-07
-6.90947e-07
1.10829e-06
-6.37557e-07
1.29151e-06
-5.91312e-07
1.46445e-06
-5.5726e-07
1.63276e-06
-5.40199e-07
1.8034e-06
-5.44226e-07
1.98449e-06
-5.71398e-07
2.18386e-06
-6.19457e-07
2.40601e-06
-6.79171e-07
2.64834e-06
-7.33773e-07
2.89922e-06
-7.63009e-07
3.1404e-06
-7.51393e-07
3.35325e-06
-6.95301e-07
3.52497e-06
-6.03609e-07
3.65115e-06
-4.91916e-07
3.73399e-06
-3.7548e-07
3.77905e-06
-2.65468e-07
3.79286e-06
-1.68781e-07
3.78205e-06
-8.92765e-08
3.75358e-06
-2.89107e-08
3.71429e-06
1.22678e-08
3.66916e-06
3.66676e-08
3.62161e-06
4.74144e-08
3.57688e-06
4.65476e-08
3.53921e-06
3.78224e-08
3.50569e-06
2.69354e-08
3.47583e-06
1.59862e-08
3.45811e-06
7.85457e-09
3.44514e-06
2.84184e-09
3.42463e-06
-1.18497e-08
3.42908e-06
-1.6002e-08
3.4624e-06
2.59599e-08
3.45099e-06
4.49157e-08
3.44509e-06
2.4691e-08
3.60534e-06
1.59159e-07
3.87298e-06
4.40122e-07
4.09248e-06
5.38825e-07
4.20986e-06
2.91812e-07
4.24851e-06
-7.50516e-08
4.2688e-06
-2.90945e-07
4.32363e-06
-3.25146e-07
4.42651e-06
-2.54968e-07
4.51244e-06
-8.47778e-08
4.49791e-06
1.72322e-07
4.38606e-06
3.9841e-07
4.21778e-06
4.71543e-07
4.00021e-06
3.85919e-07
3.73793e-06
2.56533e-07
3.43998e-06
1.60932e-07
3.15326e-06
6.40076e-08
2.96229e-06
5.86503e-08
2.83555e-06
2.42694e-07
2.70873e-06
3.07899e-07
2.65971e-06
-7.46497e-08
2.75205e-06
-6.38572e-07
2.87053e-06
-8.10016e-07
2.82357e-06
-3.8956e-07
2.47581e-06
4.33267e-07
1.80116e-06
1.40542e-06
9.11056e-07
2.2918e-06
9.59679e-09
2.81312e-06
-7.82988e-07
2.85134e-06
-1.48674e-06
2.61224e-06
-2.13609e-06
2.30744e-06
-2.72752e-06
1.98841e-06
-3.23754e-06
1.60843e-06
1.08461e-06
-3.67056e-06
1.44216e-07
2.61069e-07
8.11838e-07
-4.57117e-07
1.36295e-06
-1.12346e-06
1.70251e-06
-1.45659e-06
1.93288e-06
-1.58729e-06
2.13891e-06
-1.62724e-06
2.34992e-06
-1.62139e-06
2.56502e-06
-1.58649e-06
2.77681e-06
-1.53339e-06
2.98161e-06
-1.47239e-06
3.18012e-06
-1.41105e-06
3.37535e-06
-1.35356e-06
3.57064e-06
-1.30111e-06
3.76858e-06
-1.253e-06
3.97079e-06
-1.20759e-06
4.17807e-06
-1.16289e-06
4.39047e-06
-1.11675e-06
4.6074e-06
-1.06693e-06
4.82803e-06
-1.01126e-06
5.05103e-06
-9.47643e-07
5.27483e-06
-8.73805e-07
5.49781e-06
-7.87755e-07
5.7174e-06
-6.87556e-07
5.93089e-06
-5.70665e-07
6.13376e-06
-4.35663e-07
6.31947e-06
-2.80435e-07
6.48051e-06
-1.04889e-07
6.60466e-06
8.7427e-08
6.68128e-06
2.99482e-07
6.70248e-06
5.19802e-07
6.65964e-06
7.29767e-07
6.55703e-06
9.28578e-07
6.40321e-06
1.0855e-06
6.20307e-06
1.20086e-06
5.97599e-06
1.31107e-06
5.75926e-06
1.34896e-06
5.61564e-06
1.3019e-06
5.53955e-06
1.32023e-06
5.41339e-06
1.42985e-06
5.16274e-06
1.43435e-06
4.82081e-06
1.22282e-06
4.49423e-06
8.80962e-07
4.27897e-06
5.30227e-07
4.20056e-06
2.2873e-07
4.23005e-06
-2.94476e-09
4.32427e-06
-1.46877e-07
4.42771e-06
-1.80945e-07
4.47678e-06
-9.18899e-08
4.42182e-06
1.26079e-07
4.22082e-06
4.62894e-07
3.84357e-06
8.9307e-07
3.28801e-06
1.34327e-06
2.54446e-06
1.7559e-06
1.6632e-06
2.05108e-06
6.81918e-07
2.09345e-06
-7.24539e-07
2.16116e-06
-3.10024e-06
3.36361e-06
-5.53469e-06
5.12621e-06
-7.35848e-06
6.10016e-06
-8.53141e-06
6.33628e-06
-9.30022e-06
6.17929e-06
-9.77119e-06
5.70639e-06
-1.01588e-05
5.08457e-06
-1.04942e-05
4.45182e-06
-1.08014e-05
3.78302e-06
-1.10766e-05
3.15011e-06
-1.13013e-05
2.53816e-06
-1.14743e-05
1.98527e-06
-1.15929e-05
1.49061e-06
-1.16668e-05
1.06457e-06
-1.17021e-05
6.9819e-07
-1.17051e-05
3.80842e-07
-1.16743e-05
9.46002e-08
-1.16036e-05
-1.77812e-07
-1.14822e-05
-4.49011e-07
-1.12991e-05
-7.23051e-07
-1.10465e-05
-9.94341e-07
-1.07244e-05
-1.25105e-06
-1.03392e-05
-1.47985e-06
-9.90215e-06
-1.67188e-06
-9.42543e-06
-1.82313e-06
-8.92095e-06
-1.93431e-06
-8.39925e-06
-2.00832e-06
-7.86948e-06
-2.04966e-06
-7.33957e-06
-2.06289e-06
-6.81645e-06
-2.05262e-06
-6.30612e-06
-2.02315e-06
-5.81353e-06
-1.97886e-06
-5.34224e-06
-1.9241e-06
-4.89437e-06
-1.86292e-06
-4.47069e-06
-1.79873e-06
-4.07083e-06
-1.7343e-06
-3.69354e-06
-1.67171e-06
-3.33688e-06
-1.6125e-06
-2.99866e-06
-1.55754e-06
-2.67659e-06
-1.50727e-06
-2.36852e-06
-1.46176e-06
-2.07254e-06
-1.42088e-06
-1.78695e-06
-1.3844e-06
-1.5103e-06
-1.3521e-06
-1.24126e-06
-1.32382e-06
-9.78466e-07
-1.2996e-06
-7.20409e-07
-1.27956e-06
-4.653e-07
-1.26371e-06
-2.11257e-07
-1.25132e-06
4.32444e-08
-1.24054e-06
2.98653e-07
-1.22815e-06
5.53555e-07
-1.20965e-06
8.04283e-07
-1.18028e-06
1.04542e-06
-1.13663e-06
1.27087e-06
-1.07791e-06
1.47543e-06
-1.00652e-06
1.6564e-06
-9.27955e-07
1.81534e-06
-8.49883e-07
1.95758e-06
-7.79797e-07