/*--------------------------------*- C++ -*----------------------------------*\
  =========                 |
  \\      /  F ield         | OpenFOAM: The Open Source CFD Toolbox
   \\    /   O peration     | Website:  https://openfoam.org
    \\  /    A nd           | Version:  6
     \\/     M anipulation  |
\*---------------------------------------------------------------------------*/
FoamFile
{
    version     2.0;
    format      ascii;
    class       volScalarField;
    location    "0.45";
    object      pMean;
}
// * * * * * * * * * * * * * * * * * * * * * * * * * * * * * * * * * * * * * //

dimensions      [0 2 -2 0 0 0 0];

internalField   nonuniform List<scalar> 
12225
(
1.94758
1.41733
1.06129
0.887959
0.803236
0.741031
0.680712
0.624514
0.578389
0.545729
0.526993
0.522481
0.531602
0.554733
0.588088
0.623472
0.636971
0.569468
1.81208
1.37869
1.04479
0.872664
0.787666
0.726694
0.667861
0.612523
0.566566
0.533556
0.514005
0.508039
0.514802
0.534146
0.561791
0.589568
0.59505
0.541862
1.6826
1.34659
1.0444
0.870939
0.781702
0.720033
0.661862
0.606534
0.55965
0.524866
0.502942
0.493342
0.495163
0.506497
0.523453
0.535794
0.527463
0.470368
1.57089
1.31254
1.04415
0.868966
0.773013
0.709273
0.651508
0.596203
0.548153
0.511193
0.4862
0.472284
0.467915
0.470271
0.474774
0.471627
0.447975
0.383232
1.46738
1.26981
1.03569
0.862453
0.760422
0.6944
0.63735
0.582633
0.533786
0.494701
0.466442
0.4479
0.436964
0.430294
0.422857
0.406319
0.37002
0.301553
1.36632
1.21826
1.0181
0.852062
0.746223
0.677852
0.621329
0.567357
0.517837
0.476481
0.44457
0.420942
0.403116
0.3875
0.369146
0.341254
0.295783
0.225946
1.2736
1.1624
0.99362
0.838847
0.731533
0.660441
0.603533
0.549874
0.499516
0.455654
0.419713
0.390634
0.365788
0.341593
0.31351
0.27622
0.22403
0.152958
1.19446
1.10632
0.964437
0.823026
0.716273
0.642225
0.583849
0.529803
0.478344
0.4318
0.391593
0.35686
0.325058
0.292805
0.256149
0.210984
0.153279
0.0802267
1.12275
1.04993
0.930576
0.803245
0.699104
0.622666
0.562279
0.507336
0.454644
0.405447
0.360987
0.320641
0.282138
0.242443
0.198207
0.146231
0.0835023
0.00783121
1.04634
0.990238
0.890141
0.776739
0.677109
0.599424
0.536929
0.480642
0.426514
0.374702
0.326108
0.280328
0.235479
0.188957
0.137974
0.0799947
0.0127645
-0.0652874
0.976299
0.932317
0.847816
0.74713
0.653056
0.575212
0.510679
0.45255
0.396568
0.342005
0.289332
0.238299
0.187433
0.134607
0.0775116
0.0141749
-0.0571366
-0.137384
0.919929
0.881681
0.807691
0.716989
0.628304
0.551103
0.484889
0.424721
0.366681
0.309503
0.253247
0.197706
0.141746
0.0836634
0.021568
-0.0461007
-0.120664
-0.202753
0.867006
0.832449
0.7663
0.684066
0.600653
0.524621
0.457041
0.394744
0.334443
0.274607
0.214948
0.155234
0.0946184
0.0317799
-0.0347699
-0.106254
-0.183626
-0.267304
0.811427
0.778642
0.719246
0.644894
0.566897
0.492513
0.423775
0.359098
0.296047
0.233095
0.169694
0.105566
0.0401059
-0.0276149
-0.0986915
-0.173993
-0.254234
-0.339633
0.746804
0.71811
0.665059
0.597649
0.52469
0.452167
0.382513
0.315339
0.249133
0.18263
0.115192
0.0465051
-0.0238329
-0.0964078
-0.171918
-0.250932
-0.333872
-0.420886
0.678151
0.65358
0.60636
0.544752
0.476036
0.405209
0.334751
0.265068
0.195469
0.125115
0.0534558
-0.0197882
-0.094857
-0.172046
-0.25174
-0.33424
-0.4198
-0.508382
0.606976
0.586936
0.544088
0.48632
0.420206
0.350109
0.278443
0.206068
0.132893
0.0585065
-0.0174472
-0.0951367
-0.174654
-0.256066
-0.339511
-0.425058
-0.512814
-0.602701
0.548676
0.528436
0.486563
0.429953
0.364176
0.293115
0.219214
0.143639
0.0666658
-0.0118244
-0.0919854
-0.173847
-0.257356
-0.342426
-0.429019
-0.51708
-0.606592
-0.697433
0.508608
0.484938
0.440784
0.382009
0.313534
0.239278
0.161842
0.0824579
0.00143754
-0.0812463
-0.165589
-0.251448
-0.33861
-0.426868
-0.516079
-0.60612
-0.696892
-0.788229
0.490259
0.467431
0.42022
0.356143
0.282093
0.202989
0.121585
0.0387904
-0.0454737
-0.131392
-0.218863
-0.307561
-0.397148
-0.487371
-0.57808
-0.669151
-0.760484
-0.851918
0.49953
0.475234
0.421872
0.349937
0.2688
0.184526
0.0996496
0.0142202
-0.0725265
-0.160957
-0.25081
-0.341562
-0.432791
-0.524264
-0.615868
-0.707501
-0.799061
-0.890413
0.541258
0.506047
0.440882
0.357724
0.267895
0.178264
0.0903434
0.00262283
-0.0865047
-0.177401
-0.269478
-0.361998
-0.45453
-0.54693
-0.639173
-0.731198
-0.822912
-0.914135
0.593532
0.547308
0.467253
0.369826
0.270395
0.176189
0.0862666
-0.00316728
-0.0944228
-0.18752
-0.281428
-0.375273
-0.46872
-0.561758
-0.654431
-0.746684
-0.83841
-0.929447
0.649406
0.593534
0.495684
0.381789
0.273356
0.176286
0.0854398
-0.00541375
-0.0986977
-0.193715
-0.289004
-0.383707
-0.477684
-0.571079
-0.663987
-0.756344
-0.847999
-0.938804
0.715992
0.644514
0.524032
0.39318
0.278156
0.180074
0.088587
-0.00404715
-0.0994846
-0.196171
-0.292457
-0.387709
-0.482028
-0.575666
-0.668729
-0.761143
-0.852763
-0.943389
0.792678
0.69563
0.546221
0.400504
0.283182
0.186012
0.0937375
-0.00121032
-0.0989454
-0.197137
-0.294214
-0.389882
-0.48447
-0.578289
-0.671425
-0.763799
-0.855286
-0.945762
0.884962
0.743511
0.558309
0.402358
0.287602
0.192894
0.0998318
0.00265772
-0.0969523
-0.19622
-0.29388
-0.389975
-0.48497
-0.579146
-0.672536
-0.765019
-0.856486
-0.946803
1.00085
0.78767
0.561631
0.400009
0.290492
0.198698
0.105166
0.00660172
-0.0938434
-0.193281
-0.29083
-0.386807
-0.481745
-0.575867
-0.669138
-0.761374
-0.852561
-0.943056
1.13054
0.826688
0.561268
0.395603
0.289516
0.198746
0.104056
0.00413314
-0.0970259
-0.196642
-0.294175
-0.390124
-0.485075
-0.579178
-0.672419
-0.764455
-0.855153
-0.943935
1.26168
0.868317
0.577594
0.408677
0.302774
0.211035
0.114627
0.0131833
-0.0889996
-0.189273
-0.287302
-0.383675
-0.479022
-0.573436
-0.66696
-0.759125
-0.850061
-0.938962
-3.48985
-3.52889
-3.57223
-3.5898
-3.56838
-3.51915
-3.48266
-3.50534
-3.62075
-3.84088
-4.15552
-4.53813
-4.95478
-5.3725
-5.7642
-6.10976
-6.39579
-6.6153
-6.76669
-6.8526
-6.87884
-6.8553
-6.79325
-6.70328
-6.59701
-6.48873
-6.39632
-6.33463
-6.30998
-6.3258
-6.38678
-6.49672
-6.65808
-6.8641
-7.09859
-7.35153
-7.62338
-7.91714
-8.236
-8.5836
-8.9611
-9.3654
-9.78824
-10.2133
-10.6228
-11.0111
-11.3781
-11.7126
-11.9964
-12.2384
-12.4578
-12.6556
-12.8147
-12.9231
-12.9892
-13.0348
-13.079
-13.1287
-13.1732
-13.2086
-13.2424
-13.2719
-13.3101
-13.3763
-13.4716
-13.5964
-13.7463
-13.9037
-14.0478
-14.1659
-14.2454
-14.2746
-14.2608
-14.2293
-14.196
-14.1607
-14.1115
-14.0417
-13.95
-13.8309
-13.6698
-13.4595
-13.1985
-12.8925
-12.55
-12.1648
-11.7251
-11.2393
-10.752
-10.2886
-9.85583
-9.47465
-9.14404
-8.85793
-8.63733
-8.46962
-8.29832
-8.064
-7.71976
-7.24086
-6.61424
-5.84241
-4.98446
-4.11415
-3.25702
-2.40513
-1.61212
-0.971738
-0.462881
-0.0167725
0.41845
0.886063
1.4115
2.00629
2.66934
3.3948
4.17838
5.01602
5.89729
6.80539
7.71866
8.62171
9.50749
10.337
11.057
11.6557
12.1373
12.514
12.8125
13.0659
13.3088
13.5573
13.8219
14.0665
14.1842
14.1375
14.0034
13.8263
13.6259
13.4756
13.434
13.5114
13.703
13.989
14.3312
14.7012
15.1024
15.5478
16.0347
16.5441
17.0498
17.5299
17.9687
18.3553
18.6692
18.8697
18.92
18.8288
18.6486
18.4323
18.2139
18.0084
17.8193
17.6533
17.5295
17.4636
17.4547
17.4915
17.5591
17.6402
17.7126
17.7525
17.7482
17.7069
17.6511
17.6042
17.5894
17.6251
17.7442
17.904
-3.70776
-3.75526
-3.82187
-3.87887
-3.91049
-3.93065
-3.9761
-4.08377
-4.27463
-4.54945
-4.89271
-5.27927
-5.67997
-6.06802
-6.42338
-6.73154
-6.98183
-7.16911
-7.294
-7.36061
-7.37458
-7.3434
-7.27768
-7.18892
-7.08827
-6.98821
-6.90395
-6.84987
-6.83354
-6.85829
-6.93324
-7.06452
-7.24575
-7.47027
-7.72642
-8.00085
-8.29662
-8.6128
-8.94771
-9.30776
-9.69207
-10.0951
-10.5099
-10.9262
-11.331
-11.7154
-12.0809
-12.4215
-12.7207
-12.9752
-13.1965
-13.3843
-13.5342
-13.6444
-13.7196
-13.7697
-13.808
-13.8431
-13.8702
-13.8949
-13.9356
-13.9918
-14.0599
-14.1484
-14.2583
-14.3862
-14.5244
-14.6546
-14.7631
-14.842
-14.8882
-14.8981
-14.881
-14.8568
-14.8349
-14.8087
-14.7603
-14.688
-14.5941
-14.4628
-14.2759
-14.036
-13.7507
-13.4216
-13.0597
-12.6631
-12.2305
-11.7614
-11.2957
-10.8609
-10.4572
-10.0912
-9.77171
-9.50223
-9.29338
-9.11876
-8.92465
-8.66089
-8.28576
-7.7731
-7.11793
-6.33171
-5.47129
-4.59833
-3.74023
-2.91893
-2.18388
-1.5851
-1.07425
-0.599792
-0.125707
0.381943
0.945878
1.57524
2.26907
3.02311
3.83502
4.69968
5.60486
6.53246
7.46254
8.36956
9.24086
10.0533
10.7667
11.3664
11.8489
12.2305
12.5343
12.7918
13.04
13.2965
13.5468
13.7354
13.7965
13.7357
13.6095
13.4437
13.2719
13.1632
13.1562
13.2585
13.4644
13.7517
14.0862
14.4526
14.8603
15.3167
15.8142
16.3333
16.8487
17.3382
17.7855
18.1754
18.4803
18.6605
18.6955
18.6067
18.441
18.2403
18.0325
17.8307
17.6414
17.4772
17.3596
17.3004
17.2965
17.3371
17.407
17.4876
17.5567
17.5915
17.5833
17.5399
17.4834
17.4324
17.4097
17.4246
17.5112
17.6041
-3.84524
-3.89064
-3.98575
-4.12203
-4.28628
-4.47789
-4.70824
-4.98684
-5.31339
-5.67783
-6.0637
-6.45271
-6.82743
-7.17294
-7.47756
-7.73279
-7.93349
-8.07916
-8.17239
-8.21715
-8.21881
-8.18254
-8.11503
-8.02609
-7.92826
-7.83481
-7.75672
-7.70491
-7.69065
-7.72193
-7.80575
-7.94685
-8.13846
-8.37514
-8.6514
-8.9545
-9.27946
-9.62595
-9.99283
-10.3805
-10.7837
-11.1956
-11.6098
-12.0227
-12.4343
-12.8376
-13.2204
-13.5711
-13.8837
-14.1528
-14.3812
-14.5691
-14.7171
-14.8304
-14.9105
-14.9607
-14.9849
-14.9916
-14.9987
-15.0245
-15.0757
-15.1523
-15.2489
-15.3602
-15.4811
-15.6029
-15.713
-15.8005
-15.8617
-15.8979
-15.9137
-15.9144
-15.9101
-15.9048
-15.8923
-15.8619
-15.8051
-15.7239
-15.6103
-15.4451
-15.2225
-14.9495
-14.6329
-14.2771
-13.8998
-13.5044
-13.0933
-12.6668
-12.2431
-11.8407
-11.4664
-11.1233
-10.8251
-10.5789
-10.3752
-10.1799
-9.94793
-9.63725
-9.21386
-8.66041
-7.97844
-7.1877
-6.33077
-5.46063
-4.61948
-3.85072
-3.17936
-2.5964
-2.06039
-1.541
-1.01012
-0.445108
0.17163
0.847969
1.58526
2.38297
3.23924
4.14565
5.08709
6.04324
6.98661
7.88985
8.7413
9.53213
10.24
10.842
11.3309
11.7211
12.0326
12.3012
12.5616
12.8143
13.0144
13.1142
13.1148
13.0484
12.9321
12.7887
12.6676
12.6143
12.651
12.7869
13.014
13.3065
13.6379
14.0091
14.4305
14.9018
15.4136
15.947
16.4776
16.9817
17.4401
17.8311
18.1192
18.2722
18.2932
18.2132
18.0682
17.8881
17.6936
17.497
17.3102
17.1539
17.0492
17.0035
17.0116
17.0621
17.1383
17.2194
17.2834
17.3108
17.2965
17.2479
17.185
17.1233
17.0846
17.0756
17.1218
17.146
-3.94787
-4.01391
-4.18433
-4.45878
-4.81009
-5.20439
-5.61962
-6.04432
-6.47006
-6.88842
-7.29073
-7.66808
-8.01288
-8.31925
-8.58278
-8.79996
-8.96889
-9.09137
-9.17084
-9.21051
-9.21363
-9.18425
-9.12839
-9.05518
-8.97399
-8.89422
-8.82667
-8.78168
-8.76919
-8.79931
-8.87965
-9.01328
-9.19916
-9.43343
-9.71057
-10.0225
-10.3645
-10.7356
-11.134
-11.5522
-11.9844
-12.424
-12.8638
-13.3055
-13.7524
-14.1952
-14.6151
-14.9964
-15.3309
-15.613
-15.844
-16.0329
-16.1829
-16.2956
-16.3701
-16.4084
-16.4153
-16.406
-16.4016
-16.4184
-16.4638
-16.5385
-16.6379
-16.7513
-16.8664
-16.9699
-17.05
-17.103
-17.1317
-17.1434
-17.1468
-17.1489
-17.1536
-17.1563
-17.1469
-17.1124
-17.0448
-16.941
-16.7917
-16.5889
-16.3376
-16.0439
-15.707
-15.3367
-14.9573
-14.5781
-14.1939
-13.8057
-13.4232
-13.0529
-12.7032
-12.388
-12.1187
-11.8887
-11.6799
-11.4594
-11.187
-10.8259
-10.3532
-9.76579
-9.0728
-8.28723
-7.43875
-6.58375
-5.77727
-5.05177
-4.40107
-3.80441
-3.23588
-2.67128
-2.08552
-1.4629
-0.7922
-0.0667067
0.717959
1.56355
2.46713
3.41756
4.3965
5.37725
6.32749
7.22439
8.06358
8.84211
9.54327
10.1453
10.6399
11.0352
11.3549
11.6396
11.9106
12.1369
12.263
12.2903
12.2575
12.1824
12.0703
11.9568
11.8834
11.8776
11.9566
12.1285
12.382
12.689
13.0306
13.4161
13.8532
14.339
14.8649
15.4139
15.9621
16.483
16.9524
17.3421
17.614
17.7482
17.7655
17.699
17.5752
17.4141
17.2311
17.0402
16.8603
16.7167
16.6286
16.5997
16.6232
16.6867
16.7722
16.8555
16.9137
16.9328
16.9128
16.8595
16.7872
16.7086
16.6469
16.6147
16.6269
16.6121
-4.14101
-4.2764
-4.57858
-5.00931
-5.50727
-6.02544
-6.53889
-7.03671
-7.51196
-7.9596
-8.37674
-8.75932
-9.10235
-9.40203
-9.65735
-9.86818
-10.035
-10.1601
-10.2469
-10.2986
-10.3182
-10.3097
-10.2789
-10.2333
-10.1807
-10.1293
-10.0877
-10.0638
-10.0657
-10.1025
-10.1813
-10.3052
-10.4752
-10.6907
-10.9514
-11.2552
-11.5997
-11.9838
-12.4015
-12.8437
-13.3034
-13.7771
-14.2601
-14.7513
-15.2463
-15.7316
-16.1879
-16.5985
-16.9532
-17.2519
-17.4984
-17.6946
-17.8426
-17.9456
-18.0043
-18.0229
-18.0113
-17.9876
-17.969
-17.9668
-17.9904
-18.0453
-18.1268
-18.2215
-18.3144
-18.3904
-18.4403
-18.4654
-18.4729
-18.4701
-18.463
-18.4577
-18.4568
-18.4565
-18.448
-18.4144
-18.3411
-18.2183
-18.0407
-17.813
-17.5472
-17.245
-16.9052
-16.5437
-16.1818
-15.8242
-15.4632
-15.1045
-14.7513
-14.4054
-14.0826
-13.8002
-13.5555
-13.3324
-13.1117
-12.8615
-12.5463
-12.1373
-11.624
-11.0148
-10.3195
-9.54216
-8.71174
-7.88838
-7.1212
-6.41805
-5.76261
-5.14362
-4.54256
-3.9341
-3.29663
-2.61925
-1.89553
-1.11972
-0.285796
0.608348
1.55806
2.54985
3.56108
4.56015
5.51566
6.41148
7.24584
8.01489
8.7064
9.30581
9.8026
10.2003
10.5292
10.8281
11.0965
11.275
11.3324
11.3174
11.2652
11.1777
11.0714
10.9871
10.9512
10.984
11.1018
11.3091
11.5914
11.9205
12.2822
12.6875
13.1415
13.6418
14.182
14.7473
15.3136
15.851
16.3296
16.7168
16.977
17.103
17.1252
17.0764
16.9755
16.8339
16.6633
16.4799
16.3092
16.1804
16.1104
16.0991
16.1374
16.213
16.3068
16.3918
16.4438
16.455
16.4301
16.3729
16.2912
16.1954
16.1116
16.0592
16.048
16.0186
-4.50066
-4.7335
-5.1633
-5.68843
-6.24504
-6.80606
-7.35815
-7.89373
-8.40643
-8.8907
-9.34263
-9.75717
-10.1283
-10.4519
-10.7286
-10.9616
-11.153
-11.305
-11.4202
-11.5006
-11.5498
-11.573
-11.5767
-11.5676
-11.5534
-11.5418
-11.5392
-11.5507
-11.5815
-11.6385
-11.7275
-11.8523
-12.0156
-12.2207
-12.4713
-12.7701
-13.1172
-13.5097
-13.9401
-14.4
-14.8835
-15.3877
-15.9087
-16.4399
-16.9678
-17.4755
-17.947
-18.3701
-18.7368
-19.0473
-19.3035
-19.5029
-19.6459
-19.7342
-19.7714
-19.7668
-19.7348
-19.6919
-19.6508
-19.622
-19.6164
-19.6426
-19.6953
-19.7583
-19.8155
-19.8536
-19.8674
-19.8621
-19.8458
-19.8244
-19.7992
-19.775
-19.7562
-19.7442
-19.7317
-19.6979
-19.6211
-19.4883
-19.2983
-19.0631
-18.7967
-18.5001
-18.1767
-17.8425
-17.5099
-17.1762
-16.8382
-16.5016
-16.1661
-15.8406
-15.548
-15.298
-15.0726
-14.8521
-14.6158
-14.3332
-13.9761
-13.5255
-12.9821
-12.3589
-11.6626
-10.8959
-10.0922
-9.30952
-8.57864
-7.88762
-7.22334
-6.58323
-5.95012
-5.2984
-4.61118
-3.8809
-3.10431
-2.27688
-1.39268
-0.450541
0.542634
1.57069
2.60751
3.62069
4.58329
5.48286
6.31542
7.07614
7.75863
8.35447
8.85115
9.25099
9.58716
9.89034
10.1362
10.258
10.2668
10.2294
10.1629
10.0663
9.97178
9.91432
9.90969
9.97593
10.1281
10.3672
10.6771
11.0307
11.4166
11.844
12.3163
12.8323
13.3873
13.9686
14.5517
15.1041
15.5908
15.9762
16.2302
16.3548
16.3864
16.3574
16.2804
16.1591
16.0019
15.828
15.6692
15.5577
15.5076
15.5143
15.5663
15.6512
15.75
15.8341
15.88
15.8849
15.8559
15.794
15.7034
15.5932
15.4921
15.4252
15.4017
15.3709
-5.07085
-5.35143
-5.81049
-6.33633
-6.88847
-7.4545
-8.02533
-8.59164
-9.14447
-9.67538
-10.1763
-10.6389
-11.0562
-11.4251
-11.7472
-12.0265
-12.2648
-12.4642
-12.6269
-12.7545
-12.8502
-12.9198
-12.9704
-13.0099
-13.046
-13.0857
-13.1344
-13.1954
-13.2719
-13.3683
-13.4889
-13.6375
-13.8182
-14.0363
-14.2982
-14.6083
-14.9676
-15.373
-15.819
-16.2971
-16.8009
-17.3272
-17.8702
-18.4189
-18.9554
-19.4633
-19.9311
-20.3499
-20.7134
-21.0211
-21.2712
-21.4589
-21.5847
-21.6508
-21.6621
-21.6311
-21.5737
-21.5037
-21.4329
-21.3718
-21.3314
-21.321
-21.334
-21.3529
-21.3635
-21.3563
-21.3288
-21.2875
-21.2427
-21.1975
-21.1493
-21.1012
-21.0604
-21.031
-21.0051
-20.9591
-20.8698
-20.726
-20.5299
-20.2958
-20.0373
-19.7576
-19.4625
-19.1629
-18.863
-18.5575
-18.2457
-17.9289
-17.6098
-17.3086
-17.0506
-16.8328
-16.6269
-16.4102
-16.1596
-15.8475
-15.4542
-14.9706
-14.4039
-13.7672
-13.0678
-12.3125
-11.538
-10.7947
-10.0932
-9.41032
-8.7391
-8.0811
-7.41797
-6.72639
-5.99343
-5.21385
-4.38657
-3.50861
-2.57546
-1.58819
-0.556451
0.500887
1.5568
2.58267
3.55635
4.46423
5.29824
6.05408
6.73065
7.323
7.81826
8.21945
8.55709
8.85143
9.06043
9.1309
9.11056
9.06046
8.98237
8.88326
8.80521
8.77299
8.79615
8.89172
9.07323
9.33933
9.67322
10.0498
10.4591
10.9081
11.3994
11.9317
12.5018
13.098
13.6961
14.2616
14.7559
15.1414
15.3929
15.5193
15.5619
15.5536
15.5007
15.3994
15.2561
15.0932
14.9484
14.8553
14.8254
14.8505
14.9164
15.0095
15.1108
15.1922
15.233
15.2348
15.2033
15.1368
15.0386
14.9181
14.8049
14.7279
14.698
14.6712
-5.69644
-5.94809
-6.35095
-6.83058
-7.36181
-7.92852
-8.5164
-9.11271
-9.70636
-10.287
-10.844
-11.3664
-11.8466
-12.2811
-12.6712
-13.0193
-13.3267
-13.595
-13.8247
-14.0166
-14.1739
-14.3026
-14.4109
-14.5081
-14.6029
-14.7021
-14.81
-14.9294
-15.0625
-15.2124
-15.3823
-15.5764
-15.7997
-16.0579
-16.3578
-16.7036
-17.0952
-17.5291
-18.0008
-18.5023
-19.0261
-19.5674
-20.1183
-20.6659
-21.1953
-21.6937
-22.1513
-22.5579
-22.907
-23.1969
-23.425
-23.5869
-23.6822
-23.714
-23.6906
-23.6256
-23.5325
-23.4233
-23.3104
-23.2052
-23.1183
-23.0583
-23.0178
-22.9807
-22.9363
-22.8783
-22.8057
-22.7256
-22.6496
-22.5782
-22.5048
-22.4316
-22.3654
-22.3101
-22.2569
-22.1837
-22.071
-21.9105
-21.7064
-21.4734
-21.2244
-20.965
-20.7001
-20.4351
-20.1692
-19.8973
-19.6155
-19.322
-19.0264
-18.7574
-18.5384
-18.3545
-18.171
-17.9627
-17.7049
-17.3728
-16.954
-16.4469
-15.8605
-15.2075
-14.4995
-13.751
-12.9992
-12.2848
-11.603
-10.9267
-10.2528
-9.58274
-8.89676
-8.17457
-7.40528
-6.58484
-5.7134
-4.78998
-3.81267
-2.78554
-1.72094
-0.639392
0.433729
1.47527
2.46562
3.3866
4.22562
4.97996
5.65297
6.24192
6.73524
7.13639
7.46947
7.74512
7.91475
7.94685
7.91017
7.85146
7.76423
7.66779
7.60781
7.59894
7.64679
7.76734
7.97283
8.26054
8.61351
9.00895
9.43785
9.90573
10.4147
10.9631
11.5477
12.1577
12.7688
13.3453
13.8458
14.232
14.4828
14.6122
14.666
14.6786
14.6495
14.5675
14.4385
14.2881
14.1582
14.0829
14.0718
14.1147
14.1944
14.2949
14.3977
14.4767
14.5154
14.5181
14.4869
14.4175
14.315
14.1894
14.0692
13.9856
13.9513
13.9292
-6.14662
-6.34938
-6.69378
-7.13814
-7.65594
-8.2251
-8.8288
-9.45331
-10.0865
-10.7167
-11.3327
-11.9234
-12.4801
-12.9978
-13.4749
-13.9116
-14.3081
-14.6642
-14.9786
-15.2511
-15.4847
-15.6849
-15.8599
-16.0204
-16.1772
-16.3381
-16.5073
-16.6876
-16.8807
-17.0893
-17.3177
-17.5711
-17.8551
-18.1755
-18.5377
-18.9433
-19.3894
-19.8712
-20.383
-20.9161
-21.4621
-22.0158
-22.5695
-23.112
-23.6326
-24.1221
-24.569
-24.9599
-25.2882
-25.5533
-25.7519
-25.8794
-25.9366
-25.9267
-25.8596
-25.7483
-25.6045
-25.4398
-25.2678
-25.1016
-24.9525
-24.8287
-24.7228
-24.6219
-24.5187
-24.4081
-24.2896
-24.169
-24.0576
-23.955
-23.8519
-23.7481
-23.6469
-23.5506
-23.4531
-23.3392
-23.1949
-23.0137
-22.7989
-22.5634
-22.3202
-22.0773
-21.8394
-21.608
-21.3791
-21.1453
-20.8973
-20.6329
-20.3689
-20.1385
-19.9618
-19.8146
-19.6576
-19.463
-19.2055
-18.8633
-18.4291
-17.9069
-17.3047
-16.6344
-15.9128
-15.1624
-14.42
-13.7199
-13.0494
-12.381
-11.7126
-11.0404
-10.3435
-9.60399
-8.81184
-7.96278
-7.05728
-6.09683
-5.08265
-4.02159
-2.92794
-1.82283
-0.729471
0.332567
1.3434
2.27982
3.12584
3.8807
4.55168
5.1384
5.63122
6.03239
6.3579
6.611
6.74668
6.75316
6.70674
6.6412
6.54732
6.45651
6.41393
6.42622
6.49579
6.63687
6.86054
7.16358
7.52955
7.93818
8.38136
8.86368
9.38736
9.95004
10.5479
11.1702
11.7923
12.3768
12.8808
13.2666
13.5171
13.6503
13.7154
13.7482
13.7409
13.6775
13.564
13.428
13.3136
13.2547
13.26
13.3184
13.4102
13.5173
13.6219
13.7006
13.7407
13.7481
13.7202
13.6518
13.5499
13.4247
13.303
13.2161
13.1782
13.1594
-6.34292
-6.52114
-6.84023
-7.26759
-7.77619
-8.34643
-8.96448
-9.61756
-10.2928
-10.9778
-11.6611
-12.3317
-12.9794
-13.596
-14.1759
-14.7162
-15.2146
-15.6682
-16.0745
-16.4334
-16.7483
-17.0249
-17.2719
-17.5006
-17.7223
-17.9453
-18.1749
-18.4145
-18.6673
-18.9374
-19.2306
-19.5532
-19.9104
-20.3063
-20.7431
-21.2184
-21.7265
-22.2617
-22.8167
-23.3829
-23.952
-24.5198
-25.0808
-25.6258
-26.1461
-26.6317
-27.0688
-27.4427
-27.7484
-27.9867
-28.1556
-28.2499
-28.2689
-28.2161
-28.1008
-27.9354
-27.7312
-27.5001
-27.257
-27.0176
-26.7955
-26.599
-26.4218
-26.2545
-26.092
-25.9284
-25.7623
-25.5986
-25.4464
-25.305
-25.1647
-25.0227
-24.8775
-24.729
-24.576
-24.412
-24.2292
-24.0221
-23.7917
-23.5488
-23.3062
-23.0749
-22.8601
-22.6609
-22.4703
-22.2756
-22.0627
-21.831
-21.6027
-21.4142
-21.2819
-21.1739
-21.0461
-20.8681
-20.6149
-20.2684
-19.8257
-19.294
-18.681
-17.9973
-17.262
-16.5041
-15.7594
-15.0601
-14.3939
-13.7352
-13.0789
-12.4144
-11.7186
-10.9756
-10.1747
-9.31017
-8.38242
-7.39518
-6.35221
-5.26214
-4.14116
-3.0115
-1.89564
-0.811989
0.218387
1.16925
2.0229
2.78002
3.45103
4.03809
4.53358
4.93689
5.25518
5.48683
5.59655
5.58682
5.53447
5.46412
5.36653
5.28268
5.2559
5.28694
5.37515
5.5323
5.76804
6.07943
6.45143
6.86672
7.31809
7.80969
8.3443
8.91846
9.52706
10.159
10.789
11.3775
11.8807
12.2635
12.5135
12.6513
12.7275
12.7781
12.7901
12.7445
12.6478
12.5282
12.4302
12.3868
12.4059
12.4766
12.5779
12.6909
12.7989
12.8802
12.9246
12.9389
12.9177
12.8548
12.7592
12.6404
12.522
12.435
12.3943
12.3777
-6.34803
-6.5184
-6.82535
-7.23916
-7.74261
-8.32195
-8.96433
-9.65649
-10.385
-11.1369
-11.8996
-12.6602
-13.4064
-14.127
-14.8128
-15.4575
-16.0567
-16.6065
-17.1037
-17.5484
-17.9446
-18.2989
-18.6211
-18.9225
-19.214
-19.5034
-19.7964
-20.0972
-20.4098
-20.7402
-21.0957
-21.4836
-21.9084
-22.3722
-22.8737
-23.4067
-23.9642
-24.5394
-25.1258
-25.7172
-26.3067
-26.8904
-27.4642
-28.0193
-28.5456
-29.032
-29.4629
-29.8246
-30.1141
-30.3341
-30.4822
-30.5511
-30.5388
-30.4483
-30.2883
-30.0702
-29.8058
-29.5086
-29.1946
-28.8828
-28.589
-28.3208
-28.0734
-27.8401
-27.6167
-27.3971
-27.1788
-26.9665
-26.7677
-26.5803
-26.396
-26.2108
-26.0195
-25.8191
-25.6113
-25.3971
-25.1731
-24.9351
-24.6837
-24.4289
-24.1839
-23.9608
-23.7651
-23.5951
-23.44
-23.2815
-23.1015
-22.9024
-22.7099
-22.5623
-22.4723
-22.4015
-22.3
-22.1362
-21.8872
-21.5394
-21.0933
-20.557
-19.939
-19.2493
-18.5069
-17.7428
-16.9922
-16.2866
-15.6195
-14.9679
-14.3237
-13.6708
-12.9848
-12.2496
-11.4524
-10.5845
-9.6457
-8.64128
-7.57682
-6.46216
-5.31632
-4.1638
-3.02782
-1.92665
-0.881437
0.0811645
0.942416
1.7031
2.37608
2.96643
3.46819
3.87669
4.19036
4.4045
4.49582
4.47698
4.42282
4.35115
4.25318
4.17611
4.16224
4.2086
4.31179
4.48079
4.72294
5.03572
5.40647
5.82159
6.27517
6.77093
7.31216
7.89407
8.50968
9.147
9.7798
10.3669
10.8643
11.2406
11.4889
11.6317
11.718
11.7827
11.811
11.7823
11.7038
11.6024
11.5214
11.4931
11.5244
11.6047
11.7135
11.8323
11.9458
12.0332
12.0841
12.1063
12.0941
12.0412
11.9572
11.8499
11.7393
11.655
11.6129
11.5978
-6.22837
-6.38927
-6.68366
-7.09436
-7.60955
-8.21592
-8.8995
-9.64602
-10.4412
-11.2706
-12.1194
-12.9722
-13.8137
-14.6302
-15.4108
-16.1474
-16.8351
-17.4714
-18.0552
-18.5872
-19.0701
-19.5095
-19.9135
-20.2918
-20.6536
-21.0062
-21.3556
-21.7073
-22.0665
-22.4407
-22.8385
-23.2677
-23.7327
-24.2352
-24.7729
-25.3384
-25.9236
-26.5213
-27.1268
-27.7362
-28.343
-28.9419
-29.5294
-30.0969
-30.6336
-31.1275
-31.5628
-31.9269
-32.2167
-32.434
-32.5742
-32.6281
-32.5933
-32.4741
-32.2787
-32.0178
-31.7043
-31.3534
-30.9826
-30.6128
-30.26
-29.9303
-29.6199
-29.3245
-29.0411
-28.7646
-28.4934
-28.2317
-27.9845
-27.7473
-27.5146
-27.2841
-27.049
-26.8031
-26.5482
-26.2894
-26.0271
-25.7583
-25.4843
-25.2149
-24.9649
-24.747
-24.5673
-24.4225
-24.2973
-24.1691
-24.0179
-23.8488
-23.6893
-23.5757
-23.5185
-23.4756
-23.391
-23.2342
-22.986
-22.6374
-22.1912
-21.656
-21.0409
-20.3554
-19.6158
-18.8498
-18.0958
-17.3845
-16.7135
-16.0639
-15.4263
-14.7837
-14.1112
-13.3907
-12.6052
-11.7425
-10.8008
-9.78689
-8.70779
-7.57507
-6.4108
-5.24219
-4.09378
-2.98364
-1.93091
-0.960716
-0.0930718
0.671626
1.34838
1.94515
2.45652
2.87331
3.18653
3.38923
3.4695
3.4484
3.39762
3.32897
3.23357
3.16135
3.15584
3.21289
3.32692
3.50377
3.74745
4.05559
4.41856
4.82721
5.27762
5.77272
6.31578
6.90086
7.51853
8.15537
8.78425
9.36332
9.84949
10.2159
10.4608
10.6082
10.7026
10.777
10.8177
10.8045
10.7449
10.6633
10.6001
10.5868
10.6297
10.7183
10.8336
10.9586
11.0796
11.1766
11.2364
11.267
11.2653
11.2252
11.156
11.0643
10.9653
10.8864
10.8443
10.8296
-5.99387
-6.1514
-6.4497
-6.87859
-7.4265
-8.07862
-8.81952
-9.63362
-10.5048
-11.4156
-12.3483
-13.285
-14.209
-15.1063
-15.9671
-16.7841
-17.5525
-18.27
-18.9361
-19.5509
-20.1153
-20.6321
-21.1066
-21.546
-21.9582
-22.3515
-22.734
-23.1124
-23.4931
-23.8849
-24.2969
-24.7369
-25.2106
-25.721
-26.2666
-26.8408
-27.4351
-28.0421
-28.6581
-29.2806
-29.9024
-30.5158
-31.1165
-31.6973
-32.2485
-32.7576
-33.2093
-33.5905
-33.8964
-34.127
-34.2748
-34.3273
-34.2829
-34.1479
-33.931
-33.6432
-33.2994
-32.9164
-32.5127
-32.1085
-31.7175
-31.3437
-30.9849
-30.6396
-30.3066
-29.982
-29.6653
-29.3602
-29.0695
-28.7875
-28.5097
-28.2366
-27.9627
-27.6806
-27.3894
-27.0944
-26.7994
-26.5031
-26.208
-25.9239
-25.6668
-25.4507
-25.2818
-25.154
-25.0483
-24.9406
-24.8124
-24.6697
-24.5392
-24.45
-24.411
-24.3817
-24.3016
-24.1417
-23.8884
-23.5373
-23.0929
-22.564
-21.9594
-21.2864
-20.558
-19.7972
-19.0447
-18.3315
-17.6557
-17.0042
-16.3688
-15.7339
-15.0749
-14.3704
-13.5985
-12.7439
-11.8045
-10.7882
-9.70303
-8.5622
-7.39033
-6.21659
-5.06706
-3.9595
-2.90922
-1.93793
-1.06658
-0.297663
0.38491
0.990938
1.51431
1.94215
2.26062
2.46005
2.53777
2.5217
2.47885
2.41745
2.32689
2.25657
2.25414
2.31682
2.437
2.6177
2.85898
3.15775
3.50782
3.90464
4.34709
4.8372
5.3772
5.9599
6.57347
7.20274
7.82001
8.38397
8.85389
9.20723
9.44733
9.59849
9.69809
9.77699
9.82571
9.82622
9.7855
9.72447
9.67947
9.68128
9.73586
9.83258
9.95435
10.0862
10.2165
10.3257
10.397
10.4368
10.4461
10.42
10.3673
10.2931
10.2076
10.1357
10.0949
10.0801
-5.65902
-5.82539
-6.14481
-6.60728
-7.20071
-7.90903
-8.71538
-9.60209
-10.55
-11.5386
-12.5473
-13.5573
-14.5527
-15.5212
-16.4535
-17.3428
-18.1826
-18.968
-19.6966
-20.3676
-20.9818
-21.5421
-22.0533
-22.5217
-22.9551
-23.3635
-23.7565
-24.1416
-24.5259
-24.9178
-25.3257
-25.7572
-26.2184
-26.7142
-27.2457
-27.8084
-28.3951
-28.999
-29.6158
-30.2434
-30.8759
-31.5024
-32.1159
-32.7109
-33.2783
-33.8061
-34.2802
-34.6878
-35.022
-35.2811
-35.4557
-35.5279
-35.4929
-35.3592
-35.1387
-34.8446
-34.4936
-34.1034
-33.6923
-33.2786
-32.8732
-32.478
-32.0922
-31.7174
-31.3537
-30.9982
-30.6514
-30.3162
-29.9935
-29.6778
-29.3668
-29.0626
-28.7609
-28.4548
-28.1403
-27.8202
-27.5
-27.1812
-26.867
-26.5679
-26.3007
-26.0814
-25.9152
-25.793
-25.6931
-25.5939
-25.4818
-25.3611
-25.2537
-25.1786
-25.1414
-25.1081
-25.0186
-24.8452
-24.5798
-24.2226
-23.7797
-23.2595
-22.6685
-22.012
-21.3007
-20.5551
-19.8123
-19.1025
-18.4235
-17.7684
-17.1341
-16.5058
-15.8586
-15.1674
-14.4067
-13.5601
-12.6268
-11.6153
-10.5339
-9.39647
-8.22916
-7.06263
-5.92468
-4.83242
-3.79605
-2.83181
-1.96047
-1.18757
-0.498191
0.11818
0.654702
1.09598
1.42619
1.63186
1.7166
1.71265
1.68031
1.62951
1.54582
1.47467
1.47015
1.53348
1.65478
1.83534
2.07127
2.35736
2.69063
3.07112
3.50122
3.98219
4.51416
5.08823
5.69056
6.30444
6.90208
7.44407
7.89329
8.23127
8.46505
8.61825
8.72024
8.79883
8.8513
8.86341
8.84094
8.80061
8.77351
8.78984
8.85571
8.96053
9.08941
9.22958
9.37055
9.49352
9.57822
9.62837
9.649
9.63764
9.6015
9.54442
9.47207
9.40707
9.36861
9.35384
-5.22187
-5.40106
-5.74438
-6.24227
-6.8826
-7.6475
-8.51797
-9.47397
-10.4939
-11.5553
-12.6371
-13.7193
-14.7839
-15.8159
-16.8048
-17.7435
-18.6257
-19.4459
-20.2012
-20.8918
-21.5204
-22.0915
-22.61
-23.0819
-23.5154
-23.9213
-24.3104
-24.6906
-25.0686
-25.451
-25.8442
-26.2542
-26.6876
-27.1513
-27.6497
-28.183
-28.7478
-29.3383
-29.9482
-30.5737
-31.2099
-31.846
-32.4721
-33.0817
-33.6656
-34.2138
-34.715
-35.1572
-35.5315
-35.8331
-36.0508
-36.1632
-36.1602
-36.0499
-35.8469
-35.5691
-35.2351
-34.8626
-34.4688
-34.0699
-33.6747
-33.2836
-32.8965
-32.5169
-32.1455
-31.7807
-31.4232
-31.0751
-30.7367
-30.4037
-30.0752
-29.7545
-29.4376
-29.1193
-28.795
-28.4633
-28.1274
-27.7905
-27.4583
-27.1426
-26.862
-26.6346
-26.4638
-26.3363
-26.2294
-26.1269
-26.0226
-25.917
-25.8237
-25.7522
-25.7021
-25.6468
-25.5341
-25.3377
-25.054
-24.6865
-24.2427
-23.729
-23.1509
-22.5134
-21.8255
-21.1041
-20.3791
-19.6774
-18.9992
-18.3428
-17.7103
-17.0883
-16.4509
-15.7694
-15.0165
-14.1773
-13.2528
-12.2521
-11.1828
-10.0593
-8.90886
-7.76321
-6.65035
-5.5856
-4.5736
-3.62447
-2.75772
-1.98252
-1.28736
-0.661558
-0.111596
0.345536
0.693597
0.915171
1.01654
1.03005
1.00953
0.971111
0.895958
0.823113
0.81251
0.872059
0.989996
1.16621
1.3941
1.66538
1.9791
2.3397
2.75327
3.22067
3.73921
4.29778
4.88102
5.47122
6.04156
6.55587
6.98127
7.30248
7.52847
7.68138
7.78286
7.85711
7.90948
7.93085
7.92532
7.90489
7.89477
7.92401
7.99965
8.11202
8.24893
8.39949
8.55281
8.69011
8.78889
8.85008
8.88253
8.88617
8.86552
8.82289
8.76129
8.70177
8.66593
8.65166
-4.61102
-4.80454
-5.17291
-5.70646
-6.3921
-7.21094
-8.14288
-9.16672
-10.2594
-11.396
-12.552
-13.7036
-14.8278
-15.9045
-16.9214
-17.874
-18.76
-19.5773
-20.3256
-21.0076
-21.6276
-22.1899
-22.6988
-23.1594
-23.5795
-23.97
-24.342
-24.7042
-25.0636
-25.4267
-25.7981
-26.1823
-26.5851
-27.0128
-27.4715
-27.9659
-28.4985
-29.067
-29.6634
-30.2795
-30.9097
-31.545
-32.1755
-32.7955
-33.3965
-33.9695
-34.5052
-34.9917
-35.4168
-35.7717
-36.0442
-36.213
-36.2656
-36.2063
-36.0488
-35.8134
-35.5228
-35.1949
-34.8449
-34.4868
-34.1277
-33.7672
-33.4051
-33.0453
-32.6891
-32.3354
-31.9851
-31.6395
-31.2989
-30.9611
-30.6279
-30.3032
-29.9845
-29.669
-29.3498
-29.019
-28.6764
-28.3264
-27.9771
-27.6427
-27.3445
-27.1015
-26.9171
-26.7761
-26.655
-26.5408
-26.4334
-26.3333
-26.2438
-26.1661
-26.0926
-26.0024
-25.8558
-25.6296
-25.3228
-24.9402
-24.4894
-23.9773
-23.4101
-22.7931
-22.133
-21.4419
-20.7418
-20.0544
-19.3826
-18.729
-18.0997
-17.482
-16.8499
-16.1734
-15.4257
-14.5938
-13.6804
-12.695
-11.6459
-10.5478
-9.42827
-8.31907
-7.24612
-6.221
-5.24291
-4.31654
-3.45955
-2.68445
-1.98495
-1.35114
-0.787911
-0.312732
0.0575372
0.303455
0.429794
0.464798
0.458133
0.431687
0.368011
0.296674