/*--------------------------------*- C++ -*----------------------------------*\
  =========                 |
  \\      /  F ield         | OpenFOAM: The Open Source CFD Toolbox
   \\    /   O peration     | Website:  https://openfoam.org
    \\  /    A nd           | Version:  6
     \\/     M anipulation  |
\*---------------------------------------------------------------------------*/
FoamFile
{
    version     2.0;
    format      ascii;
    class       volScalarField;
    location    "0.45";
    object      pPrime2Mean;
}
// * * * * * * * * * * * * * * * * * * * * * * * * * * * * * * * * * * * * * //

dimensions      [0 4 -4 0 0 0 0];

internalField   nonuniform List<scalar> 
12225
(
1.19156e+06
1.1737e+06
1.15564e+06
1.13786e+06
1.1205e+06
1.1036e+06
1.08719e+06
1.07125e+06
1.05576e+06
1.04069e+06
1.02599e+06
1.0116e+06
997451
983436
969411
955145
940213
923577
1.19161e+06
1.17373e+06
1.15567e+06
1.13788e+06
1.12052e+06
1.10363e+06
1.08721e+06
1.07127e+06
1.05578e+06
1.04072e+06
1.02602e+06
1.01165e+06
997512
983520
969534
955345
940597
924559
1.19169e+06
1.17381e+06
1.15573e+06
1.13793e+06
1.12057e+06
1.10367e+06
1.08726e+06
1.07132e+06
1.05584e+06
1.04078e+06
1.02611e+06
1.01175e+06
997645
983702
969799
955766
941356
926287
1.19184e+06
1.17393e+06
1.15583e+06
1.13802e+06
1.12065e+06
1.10375e+06
1.08734e+06
1.07141e+06
1.05594e+06
1.04089e+06
1.02624e+06
1.01192e+06
997863
983998
970224
956418
942458
928361
1.19207e+06
1.17411e+06
1.15598e+06
1.13815e+06
1.12077e+06
1.10386e+06
1.08745e+06
1.07153e+06
1.05607e+06
1.04106e+06
1.02643e+06
1.01216e+06
998178
984421
970817
957297
943837
930606
1.1924e+06
1.17436e+06
1.15619e+06
1.13833e+06
1.12093e+06
1.10402e+06
1.08761e+06
1.0717e+06
1.05626e+06
1.04128e+06
1.0267e+06
1.01249e+06
998601
984981
971584
958386
945431
932933
1.19281e+06
1.1747e+06
1.15646e+06
1.13857e+06
1.12114e+06
1.10422e+06
1.08782e+06
1.07192e+06
1.05651e+06
1.04156e+06
1.02705e+06
1.01292e+06
999142
985684
972522
959665
947190
935302
1.19335e+06
1.17512e+06
1.15681e+06
1.13887e+06
1.12142e+06
1.10449e+06
1.08809e+06
1.07221e+06
1.05683e+06
1.04193e+06
1.02748e+06
1.01345e+06
999806
986532
973622
961108
949077
937695
1.19403e+06
1.17566e+06
1.15725e+06
1.13925e+06
1.12177e+06
1.10482e+06
1.08842e+06
1.07256e+06
1.05722e+06
1.04238e+06
1.02801e+06
1.01409e+06
1.0006e+06
987524
974876
962694
951061
940103
1.19488e+06
1.17631e+06
1.1578e+06
1.13972e+06
1.12219e+06
1.10522e+06
1.08883e+06
1.07299e+06
1.0577e+06
1.04292e+06
1.02865e+06
1.01485e+06
1.00152e+06
988655
976268
964401
953122
942520
1.19584e+06
1.1771e+06
1.15845e+06
1.14029e+06
1.1227e+06
1.10571e+06
1.08932e+06
1.07351e+06
1.05827e+06
1.04357e+06
1.02939e+06
1.01573e+06
1.00257e+06
989917
977784
966210
955243
944944
1.19683e+06
1.17796e+06
1.15917e+06
1.1409e+06
1.12326e+06
1.10624e+06
1.08985e+06
1.07407e+06
1.05888e+06
1.04425e+06
1.03018e+06
1.01665e+06
1.00365e+06
991186
979276
967946
957232
947170
1.19806e+06
1.17894e+06
1.15998e+06
1.1416e+06
1.12389e+06
1.10684e+06
1.09045e+06
1.0747e+06
1.05956e+06
1.04501e+06
1.03105e+06
1.01765e+06
1.00481e+06
992530
980829
969722
959232
949377
1.19973e+06
1.18026e+06
1.16105e+06
1.14252e+06
1.12471e+06
1.10762e+06
1.09123e+06
1.07551e+06
1.06044e+06
1.04599e+06
1.03214e+06
1.01889e+06
1.00623e+06
994161
982681
971804
961538
951889
1.20201e+06
1.18199e+06
1.16245e+06
1.14371e+06
1.12578e+06
1.10864e+06
1.09224e+06
1.07656e+06
1.06156e+06
1.04722e+06
1.03351e+06
1.02044e+06
1.00797e+06
996112
984859
974211
964165
954714
1.20493e+06
1.18422e+06
1.16423e+06
1.14522e+06
1.12714e+06
1.10992e+06
1.09352e+06
1.07788e+06
1.06297e+06
1.04875e+06
1.0352e+06
1.0223e+06
1.01004e+06
998400
987372
976946
967108
957844
1.20856e+06
1.18694e+06
1.16641e+06
1.14706e+06
1.1288e+06
1.1115e+06
1.09509e+06
1.0795e+06
1.06469e+06
1.0506e+06
1.03721e+06
1.0245e+06
1.01245e+06
1.00102e+06
990204
979985
970340
961248
1.21255e+06
1.18995e+06
1.16882e+06
1.14914e+06
1.1307e+06
1.11334e+06
1.09693e+06
1.08141e+06
1.06669e+06
1.05275e+06
1.03953e+06
1.02701e+06
1.01514e+06
1.00392e+06
993299
983267
973795
964856
1.21627e+06
1.19258e+06
1.17099e+06
1.15112e+06
1.13261e+06
1.11525e+06
1.0989e+06
1.08348e+06
1.06889e+06
1.0551e+06
1.04205e+06
1.0297e+06
1.01802e+06
1.00698e+06
996534
986666
977344
968538
1.21518e+06
1.19273e+06
1.17168e+06
1.15208e+06
1.13375e+06
1.11654e+06
1.10033e+06
1.08504e+06
1.07059e+06
1.05693e+06
1.04401e+06
1.0318e+06
1.02025e+06
1.00932e+06
998999
989240
980015
971295
1.21389e+06
1.19223e+06
1.17168e+06
1.15242e+06
1.13432e+06
1.11728e+06
1.1012e+06
1.08602e+06
1.07168e+06
1.05811e+06
1.04529e+06
1.03317e+06
1.0217e+06
1.01086e+06
1.0006e+06
990910
981744
973076
1.21244e+06
1.19149e+06
1.17142e+06
1.15247e+06
1.1346e+06
1.11772e+06
1.10177e+06
1.08669e+06
1.07244e+06
1.05895e+06
1.0462e+06
1.03414e+06
1.02274e+06
1.01195e+06
1.00175e+06
992098
982972
974340
1.21115e+06
1.19076e+06
1.17108e+06
1.15241e+06
1.13473e+06
1.11799e+06
1.10214e+06
1.08715e+06
1.07296e+06
1.05954e+06
1.04684e+06
1.03483e+06
1.02347e+06
1.01272e+06
1.00255e+06
992937
983839
975230
1.20999e+06
1.1901e+06
1.17075e+06
1.1523e+06
1.13477e+06
1.11815e+06
1.10239e+06
1.08746e+06
1.07332e+06
1.05995e+06
1.04729e+06
1.03531e+06
1.02398e+06
1.01326e+06
1.00312e+06
993521
984442
975850
1.20912e+06
1.18957e+06
1.17048e+06
1.15219e+06
1.13478e+06
1.11824e+06
1.10254e+06
1.08766e+06
1.07357e+06
1.06022e+06
1.04759e+06
1.03564e+06
1.02433e+06
1.01363e+06
1.0035e+06
993922
984856
976276
1.20842e+06
1.18917e+06
1.17026e+06
1.15211e+06
1.13478e+06
1.1183e+06
1.10264e+06
1.0878e+06
1.07373e+06
1.06041e+06
1.04779e+06
1.03586e+06
1.02456e+06
1.01387e+06
1.00376e+06
994190
985133
976560
1.20782e+06
1.18887e+06
1.17011e+06
1.15204e+06
1.13477e+06
1.11833e+06
1.10271e+06
1.08788e+06
1.07383e+06
1.06052e+06
1.04792e+06
1.036e+06
1.02471e+06
1.01403e+06
1.00393e+06
994363
985311
976743
1.20744e+06
1.18867e+06
1.17001e+06
1.152e+06
1.13477e+06
1.11835e+06
1.10274e+06
1.08793e+06
1.07389e+06
1.0606e+06
1.048e+06
1.03608e+06
1.0248e+06
1.01413e+06
1.00403e+06
994467
985419
976853
1.20724e+06
1.18857e+06
1.16996e+06
1.15198e+06
1.13476e+06
1.11836e+06
1.10276e+06
1.08796e+06
1.07393e+06
1.06063e+06
1.04805e+06
1.03613e+06
1.02485e+06
1.01418e+06
1.00408e+06
994523
985477
976913
1.20712e+06
1.18852e+06
1.16994e+06
1.15197e+06
1.13476e+06
1.11836e+06
1.10277e+06
1.08797e+06
1.07394e+06
1.06065e+06
1.04806e+06
1.03615e+06
1.02487e+06
1.0142e+06
1.0041e+06
994546
985500
976937
780887
780825
780699
780510
780254
779933
779545
779088
778561
777963
777293
776550
775734
774845
773882
772845
771734
770548
769288
767953
766544
765062
763505
761876
760175
758402
756558
754645
752662
750611
748493
746310
744061
741748
739371
736933
734433
731873
729254
726577
723842
721050
718202
715299
712342
709332
706270
703155
699988
696769
693500
690181
686815
683402
679943
676439
672890
669298
665665
661991
658278
654525
650734
646906
643041
639139
635200
631225
627217
623175
619099
614991
610850
606674
602465
598225
593956
589661
585340
580993
576620
572223
567802
563355
558884
554389
549871
545330
540764
536174
531560
526926
522273
517603
512914
508207
503483
498744
493990
489217
484424
479609
474771
469910
465032
460142
455238
450322
445399
440475
435550
430618
425675
420715
415734
410734
405715
400680
395632
390573
385507
380436
375361
370284
365208
360135
355065
349999
344937
339876
334813
329746
324673
319590
314499
309408
304327
299257
294198
289146
284097
279047
273995
268938
263879
258819
253764
248720
243689
238675
233679
228703
223746
218808
213890
208994
204124
199283
194470
189679
184907
180154
175422
170714
166034
161384
156765
152179
147629
143118
138650
134225
129845
125511
121225
116991
112813
108700
104667
100752
781169
781106
780980
780789
780533
780210
779819
779359
778829
778228
777555
776808
775989
775096
774129
773087
771971
770780
769514
768174
766759
765270
763708
762072
760364
758585
756735
754816
752828
750771
748648
746459
744206
741888
739507
737064
734560
731996
729373
726692
723953
721157
718306
715400
712440
709426
706359
703241
700071
696849
693577
690255
686885
683469
680006
676498
672947
669353
665718
662043
658328
654573
650779
646948
643080
639176
635235
631260
627250
623208
619131
615021
610877
606699
602489
598249
593981
589686
585365
581018
576645
572248
567826
563380
558908
554412
549892
545349
540781
536190
531577
526943
522292
517622
512934
508228
503507
498769
494015
489241
484447
479631
474792
469931
465053
460160
455254
450340
445421
440501
435578
430646
425702
420740
415758
410756
405735
400698
395648
390587
385520
380448
375372
370296
365220
360148
355079
350014
344952
339890
334827
329759
324684
319601
314513
309427
304349
299280
294220
289167
284115
279064
274009
268952
263891
258831
253776
248731
243699
238683
233686
228709
223752
218813
213894
208999
204130
199290
194476
189685
184912
180159
175427
170719
166038
161388
156768
152182
147631
143120
138652
134227
129847
125513
121226
116990
112811
108695
104657
100723
781735
781671
781544
781351
781093
780766
780371
779906
779371
778764
778084
777330
776503
775602
774626
773574
772448
771246
769969
768617
767190
765689
764114
762466
760745
758954
757091
755160
753159
751092
748958
746758
744494
742167
739777
737325
734812
732241
729610
726921
724175
721373
718514
715601
712633
709612
706539
703414
700237
697009
693730
690401
687025
683601
680132
676618
673062
669464
665825
662146
658427
654668
650870
647034
643162
639253
635310
631332
627320
623274
619194
615079
610931
606751
602539
598299
594031
589736
585414
581066
576693
572296
567873
563425
558952
554453
549930
545384
540814
536222
531609
526978
522327
517659
512972
508270
503551
498814
494059
489284
484487
479669
474828
469967
465086
460191
455286
450375
445462
440547
435626
430694
425748
420784
415799
410793
405769
400729
395676
390613
385543
380469
375393
370317
365242
360170
355102
350038
344976
339915
334851
329782
324706
319625
314542
309461
304387
299319
294259
289202
284148
279093
274037
268977
263915
258855
253799
248752
243718
238699
233700
228721
223761
218822
213903
209008
204140
199301
194487
189695
184922
180168
175435
170727
166047
161395
156775
152188
147636
143124
138655
134230
129849
125515
121227
116989
112806
108686
104639
100680
782589
782524
782395
782200
781937
781606
781205
780733
780189
779572
778881
778117
777277
776362
775371
774305
773163
771944
770650
769280
767836
766316
764723
763056
761317
759507
757626
755676
753658
751573
749422
747207
744927
742585
740181
737716
735191
732607
729965
727266
724509
721696
718827
715902
712924
709893
706809
703673
700486
697248
693958
690620
687233
683800
680321
676799
673235
669630
665985
662300
658575
654809
651005
647164
643286
639373
635425
631443
627426
623374
619287
615167
611014
606830
602617
598375
594105
589809
585486
581138
576764
572365
567940
563489
559013
554511
549985
545435
540864
536272
531660
527029
522379
517713
513029
508329
503612
498877
494121
489343
484543
479721
474877
470013
465130
460234
455332
450427
445519
440607
435688
430756
425808
420841
415853
410843
405815
400770
395713
390647
385575
380499
375422
370346
365272
360201
355134
350071
345010
339949
334884
329815
324740
319662
314584
309508
304437
299371
294309
289250
284192
279135
274075
269013
263950
258889
253832
248782
243745
238723
233720
228738
223776
218835
213916
209021
204155
199316
194502
189708
184934
180180
175447
170739
166058
161406
156785
152196
147644
143130
138660
134234
129853
125517
121228
116987
112800
108674
104616
100633
783737
783670
783538
783338
783070
782731
782321
781839
781283
780653
779947
779166
778309
777375
776364
775277
774113
772872
771555
770161
768692
767149
765531
763840
762076
760242
758338
756364
754323
752216
750043
747806
745506
743144
740721
738238
735696
733096
730439
727724
724953
722126
719243
716305
713312
710267
707169
704020
700818
697566
694263
690910
687510
684065
680575
677042
673467
669852
666197
662503
658768
654994
651182
647334
643450
639531
635577
631588
627563
623503
619410
615284
611126
606938
602721
598476
594204
589906
585582
581232
576856
572454
568026
563571
559090
554584
550055
545503
540930
536338
531726
527095
522447
517783
513103
508406
503690
498955
494198
489417
484613
479786
474938
470070
465185
460292
455394
450494
445591
440682
435764
430832
425882
420911
415918
410903
405869
400820
395758
390688
385613
380536
375458
370381
365307
360237
355172
350111
345051
339991
334927
329857
324785
319712
314638
309565
304497
299431
294368
289307
284246
279185
274123
269058
263994
258931
253872
248820
243779
238753
233746
228760
223796
218853
213933
209039
204173
199334
194519
189725
184950
180195
175462
170754
166072
161419
156797
152207
147653
143139
138667
134240
129858
125521
121229
116985
112794
108661
104590
100584
785184
785115
784979
784773
784496
784147
783725
783229
782657
782009
781284
780482
779602
778643
777607
776493
775301
774032
772685
771262
769762
768188
766539
764817
763024
761160
759226
757224
755154
753019
750819
748555
746230
743843
741396
738891
736327
733707
731030
728296
725507
722662
719761
716805
713795
710732
707617
704450
701232
697961
694640
691271
687855
684394
680889
677342
673753
670125
666457
662750
659004
655219
651397
647540
643648
639721
635759
631762
627729
623662
619562
615430
611267
607074
602852
598602
594326
590025
585697
581344
576965
572559
568126
563666
559180
554670
550138
545584
541011
536417
531805
527175
522529
517868
513191
508496
503782
499047
494288
489505
484697
479865
475012
470140
465256
460365
455471
450575
445675
440769
435851
430918
425965
420990
415992
410972
405932
400877
395811
390737
385659
380579
375500
370422
365348
360280
355216
350156
345099
340040
334977
329910
324841
319771
314700
309631
304564
299499
294435
289371
284307
279243
274177
269110
264044
258979
253919
248864
243819
238789
233777
228787
223819
218875
213955
209061
204195
199355
194539
189744
184968
180213
175480
170771
166088
161434
156811
152221
147665
143149
138677
134249
129865
125526
121231
116984
112788
108647
104564
100537
786941
786868
786726
786511
786224
785861
785423
784908
784315
783645
782895
782066
781157
780169
779101
777954
776728
775424
774041
772581
771045
769434
767748
765990
764160
762260
760291
758255
756151
753983
751750
749455
747099
744682
742207
739674
737084
734438
731736
728979
726167
723299
720377
717399
714368
711285
708149
704960
701720
698429
695088
691699
688263
684783
681260
677695
674089
670443
666759
663037
659277
655481
651648
647780
643878
639941
635970
631964
627923
623849
619742
615603
611434
607234
603006
598750
594469
590162
585830
581472
577087
572676
568237
563772
559281
554768
550232
545677
541102
536509
531896
527268
522624
517966
513291
508599
503885
499150
494390
489604
484792
479956
475099
470224
465340
460450
455559
450666
445769
440865
435947
431012
426056
421077
416074
411048
406003
400943
395871
390793
385711
380628
375546
370468
365394
360326
355264
350206
345151
340094
335033
329970
324905
319838
314770
309703
304637
299571
294505
289440
284373
279304
274235
269166
264098
259032
253970
248913
243864
238829
233812
228818
223847
218901
213980
209087
204220
199380
194562
189765
184989
180233
175500
170791
166107
161452
156828
152237
147680
143163
138689
134260
129874
125533
121235
116984
112782
108633
104538
100494
789019
788941
788790
788564
788262
787882
787423
786884
786266
785566
784785
783923
782980
781955
780849
779662
778395
777049
775624
774121
772542
770888
769160
767359
765487
763546
761536
759459
757316
755108
752838
750506
748113
745662
743152
740586
737964
735288
732557
729771
726932
724038
721089
718087
715031
711922
708762
705549
702284
698969
695604
692192
688734
685231
681686
678100
674473
670808
667105
663365
659589
655778
651932
648052
644138
640190
636209
632194
628145
624062
619948
615801
611624
607416
603180
598918
594629
590315
585976
581612
577221
572803
568358
563888
559393
554875
550337
545779
541203
536609
531997
527370
522728
518072
513400
508709
503996
499260
494499
489711
484896
480057
475196
470319
465433
460544
455654
450763
445868
440965
436048
431111
426152
421169
416162
411131
406081
401014
395937
390854
385767
380681
375596
370517
365443
360376
355315
350259
345206
340152
335094
330034
324972
319908
314842
309776
304710
299644
294577
289509
284439
279367
274295
269224
264155
259088
254023
248963
243911
238872
233851
228852
223878
218930
214009
209115
204248
199406
194587
189789
185011
180255
175522
170813
166128
161472
156847
152255
147697
143179
138704
134273
129885
125541
121240
116985
112777
108620
104513
100453
791431
791347
791185
790945
790624
790222
789737
789170
788518
787784
786965
786063
785077
784008
782856
781623
780308
778913
777439
775887
774258
772554
770777
768927
767006
765017
762959
760836
758647
756395
754081
751706
749272
746780
744231
741627
738969
736257
733492
730673
727802
724877
721898
718867
715783
712646
709457
706217
702925
699582
696191
692752
689268
685740
682170
678559
674909
671221
667496
663736
659941
656113
652251
648356
644429
640469
636477
632451
628392
624300
620176
616020
611833
607617
603373
599102
594806
590484
586137
581764
577365
572940
568489
564013
559513
554991
550449
545889
541311
536716
532105
527479
522839
518184
513513
508822
504109
499373
494610
489821
485005
480162
475298
470418
465531
460641
455751
450861
445968
441066
436148
431211
426250
421264
416253
411218
406162
401090
396008
390918
385827
380736
375649
370568
365494
360427
355367
350313
345262
340210
335156
330099
325040
319977
314913
309849
304782
299714
294646
289575
284503
279429
274355
269282
264211
259143
254077
249014
243959
238916
233891
228889
223912
218962
214039
209145
204277
199434
194614
189814
185036
180279
175546
170836
166152
161495
156869
152276
147717
143198
138721
134288
129898
125550
121246
116986
112772
108608
104490
100416
794194
794102
793928
793670
793327
792897
792381
791778
791088
790311
789446
788496
787460
786339
785134
783845
782475
781023
779492
777883
776197
774436
772602
770696
768719
766675
764563
762386
760146
757843
755479
753056
750574
748036
745443
742796
740096
737344
734540
731683
728775
725814
722802
719737
716620
713452
710232
706961
703639
700267
696846
693378
689865
686309
682711
679073
675396
671682
667933
664149
660333
656484
652604
648692
644750
640776
636771
632733
628662
624558
620422
616256
612059
607835
603582
599304
594999
590668
586311
581929
577521
573087
568629
564147
559642
555115
550568
546005
541424
536828
532215
527590
522951
518296
513625
508934
504221
499483
494720
489929
485111
480267
475400
470519
465629
460738
455847
450958
446065
441163
436246
431307
426345
421357
416344
411305
406245
401167
396078
390984
385888
380793
375704
370621
365547
360480
355421
350368
345318
340268
335216
330162
325105
320044
314981
309916
304848
299779
294708
289636
284562
279486
274410
269336
264265
259196
254128
249063
244005
238958
233930
228925
223945
218994
214071
209176
204308
199464
194641
189841
185061
180304
175571
170862
166177
161519
156892
152298
147739
143219
138740
134304
129911
125561
121253
116988
112768
108595
104468
100381
797329
797228
797039
796760
796390
795928
795374
794729
793992
793164
792246
791239
790144
788962
787694
786342
784907
783390
781792
780117
778365
776538
774639
772668
770629
768522
766349
764112
761812
759452
757032
754554
752019
749430
746786
744090
741342
738543
735693
732793
729842
726841
723789
720687
717533
714329
711075
707771
704417
701013
697561
694063
690519
686933
683304
679636
675930
672188
668411
664601
660760
656889
652988
649058
645098
641108
637087
633035
628950
624832
620684
616505
612299
608066
603806
599519
595206
590866
586499
582106
577688
573245
568778
564289
559777
555245
550693
546124
541540
536941
532327
527700
523061
518405
513733
509040
504326
499586
494821
490029
485210
480365
475498
470615
465725
460831
455939
451049
446156
441254
436336
431397
426434
421445
416429
411387
406322
401240
396147
391048
385948
380851
375759
370675
365600
360533
355473
350420
345370
340322
335273
330221
325165
320104
315040
309974
304905
299834
294762
289688
284612
279536
274459
269385
264314
259244
254175
249108
244047
238998
233967
228960
223979
219026
214102
209207
204339
199493
194670
189868
185088
180331
175597
170888
166202
161544
156917
152322
147762
143240
138760
134322
129926
125572
121259
116989
112763
108582
104446
100348
800865
800753
800546
800242
799839
799339
798741
798046
797254
796367
795386
794313
793149
791896
790554
789127
787615
786021
784347
782595
780768
778866
776892
774849
772737
770559
768316
766010
763643
761216
758732
756192
753596
750947
748246
745493
742690
739837
736936
733986
730988
727941
724845
721701
718507
715265
711973
708633
705245
701808
698323
694792
691217
687598
683938
680239
676502
672729
668923
665085
661217
657321
653398
649447
645468
641459
637420
633350
629249
625117
620956
616766
612551
608309
604041
599747
595424
591074
586697
582294
577864
573411
568936
564438
559919
555380
550821
546247
541658
537054
532437
527808
523166
518508
513833
509138
504420
499678
494910
490117
485298
480453
475587
470705
465814
460919
456024
451131
446237
441333
436415
431475
426511
421521
416504
411459
406391
401305
396208
391107
386005
380907
375814
370729
365652
360583
355522
350467
345417
340370
335322
330272
325216
320154
315089
310021
304950
299877
294804
289729
284653
279576
274500
269427
264356
259285
254215
249146
244084
239033
234001
228992
224010
219057
214133
209238
204369
199523
194699
189896
185115
180357
175623
170913
166228
161569
156941
152346
147785
143262
138780
134339
129940
125582
121265
116990
112757
108569
104423
100316
804839
804714
804485
804151
803710
803165
802514
801760
800904
799947
798892
797740
796494
795155
793727
792210
790609
788926
787163
785323
783407
781419
779360
777232
775036
772775
770451
768065
765620
763118
760559
757947
755282
752564
749797
746980
744116
741204
738246
735241
732191
729094
725950
722760
719523
716238
712907
709528
706103
702630
699111
695547
691939
688288
684596
680864
677096
673292
669456
665590
661695
657774
653827
649853
645852
641823
637763
633675
629557
625410
621236
617036
612811
608561
604286
599983
595652
591293
586905
582490
578049
573585
569099
564593
560065
555518
550952
546370
541775
537167
532545
527912
523265
518604
513925
509225
504503
499757
494986
490192
485373
480529
475664
470784
465893
460997
456100
451204
446306
441401
436480
431539
426574
421582
416564
411517
406446
401358
396261
391160
386058
380960
375866
370780
365701
360630
355566
350508
345457
340409
335362
330313
325256
320192
315125
310054
304981
299906
294832
289756
284680
279605
274530
269458
264388
259318
254246
249177
244114
239063
234030
229021
224039
219085
214161
209266
204398
199552
194727
189924
185142
180384
175649
170939
166253
161594
156965
152369
147808
143283
138799
134356
129953
125591
121270
116989
112750
108555
104401
100285
809297
809157
808902
808531
808045
807445
806731
805906
804971
803929
802783
801536
800191
798750
797218
795597
793890
792102
790234
788290
786272
784182
782023
779796
777503
775147
772730
770253
767719
765130
762487
759793
757049
754257
751416
748530
745598
742621
739601
736537
733429
730278
727082
723842
720558
717229
713854
710435
706970
703460
699906
696308
692667
688984
685260
681498
677698
673865
670000
666106
662184
658237
654265
650268
646244
642193
638113
634005
629869
625707
621520
617310
613075
608818
604535
600225
595886
591517
587118
582690
578237
573762
569265
564749
560212
555656
551082
546493
541891
537276
532650
528011
523359
518692
514007
509301
504574
499823
495049
490252
485433
480591
475729
470851
465961
461064
456164
451265
446364
441455
436531
431587
426619
421626
416606
411558
406486
401398
396302
391203
386105
381008
375915
370827
365745
360671
355603
350542
345488
340439
335391
330340
325282
320216
315145
310072
304997
299921
294845
289770
284695
279621
274549
269479
264410
259340
254269
249199
244136
239087
234055
229047
224065
219112
214188
209294
204425
199580
194755
189951
185169
180409
175674
170963
166276
161617
156988
152391
147829
143303
138817
134371
129965
125599
121273
116987
112742
108540
104378
100254
814298
814139
813852
813436
812892
812222
811428
810513
809479
808332
807074
805711
804246
802684
801028
799282
797449
795535
793543
791476
789338
787130
784856
782516
780114
777651
775129
772550
769917
767231
764495
761711
758881
756005
753085
750122
747117
744070
740983
737854
734685
731476
728224
724931
721595
718218
714798
711336
707831
704283
700693
697061
693388
689673
685918
682126
678297
674435
670543
666622
662675
658703
654706
650685
646638
642565
638464
634336
630183
626006
621806
617583
613340
609073
604783
600466
596119
591740
587330
582890
578425
573936
569428
564901
560355
555791
551210
546613
542004
537383
532750
528104
523445
518771
514079
509367
504633
499876
495098
490299
485479
480638
475779
470903
466015
461117
456216
451314
446408
441495
436566
431617
426646
421650
416628
411579
406509
401423
396331
391237
386143
381049
375956
370866
365782
360704
355632
350567
345509
340457
335407
330353
325293
320224
315150
310075
304998
299920
294844
289770
284697
279626
274557
269489
264421
259351
254280
249212
244151
239104
234075
229069
224089
219136
214214
209320
204452
199607
194782
189978
185195
180434
175698
170986
166299
161639
157009
152412
147848
143321
138833
134384
129974
125604
121274
116983
112733
108524
104355
100225
820091
819906
819574
819095
818472
817706
816803
815767
814604
813319
811920
810411
808797
807082
805272
803371
801385
799318
797175
794962
792681
790336
787927
785458
782930
780344
777702
775008
772263
769470
766629
763745
760818
757850
754841
751793
748707
745583
742422
739223
735987
732712
729399
726046
722655
719225
715755
712247
708699
705111
701484
697817
694110
690363
686578
682756
678899
675010
671092
667145
663173
659175
655154
651109
647039
642943
638821
634674
630503
626310
622095
617860
613605
609330
605031
600707
596351
591962
587541
583089
578611
574109
569589
565051
560497
555925
551336
546732
542115
537486
532846
528193
523526
518842
514142
509422
504681
499918
495135
490332
485511
480672
475815
470942
466055
461157
456255
451349
446439
441519
436585
431631
426655
421655
416631
411582
406514
401433
396347
391259
386171
381080
375988
370897
365811
360729
355653
350582
345520
340463
335409
330352
325288
320217
315141
310063
304984
299906
294830
289757
284686
279618
274552
269487
264420
259352
254282
249217
244159
239116
234091
229089
224111
219160
214239
209345
204478
199633
194809
190004
185220
180459
175722
171009
166321
161661
157030
152432
147867
143338
138847
134396
129983
125609
121274
116979
112723
108508
104333
100197
826506
826285
825891
825326
824594
823700
822654
821462
820133
818678
817102
815414
813618
811720
809726
807644
805478
803237
800926
798550
796114
793618
791064
788456
785793
783076
780309
777494
774633
771728
768780
765792
762764
759699
756598
753461
750291
747086
743848
740575
737269
733927
730549
727134
723684
720199
716678
713122
709530
705902
702236
698533
694793
691015
687201
683352
679470
675557
671615
667646
663650
659629
655584
651516
647424
643307
639166
635000
630811
626601
622371
618123
613856
609570
605263
600929
596565
592167
587735
583273
578783
574270
569738
565190
560627
556048
551453
546842
542217
537580
532931
528269
523593
518901
514192
509464
504716
499947
495158
490351
485529
480690
475835
470964
466078
461180
456276
451367
446451
441524
436583
431623
426642
421639
416613
411566
406502
401427
396349
391269
386186
381099
376008
370917
365828
360742
355662
350587
345519
340456
335397
330336
325269
320196
315118
310038
304958
299879
294804
289732
284664
279599
274536
269473
264408
259341
254275
249213
244161
239123
234104
229106
224131
219183
214262
209370
204502
199658
194833
190029
185245
180483
175745
171031
166343
161682
157051
152451
147884
143354
138860
134406
129990
125612
121274
116974
112714
108493
104313
100171
832975
832711
832239
831566
830699
829651
828433
827058
825539
823887
822113
820224
818230
816136
813949
811678
809332
806917
804439
801906
799318
796679
793988
791247
788456
785617
782732
779803
776833
773824
770776
767691
764570
761415
758226
755005
751755
748473
745161
741818
738444
735037
731597
728124
724619
721081
717512
713911
710276
706609
702907
699170
695398
691591
687752
683879
679976
676042
672080
668090
664074
660033
655967
651879
647767
643632
639473
635291
631087
626862
622618
618356
614077
609780
605463
601119
596746
592339
587899
583428
578930
574408
569868
565311
560740
556154
551551
546933
542300
537656
532999
528328
523644
518944
514227
509492
504738
499963
495169
490359
485535
480695
475840
470970
466084
461187
456281
451368
446446
441513
436565
431600
426614
421608
416581
411536
406477
401409
396338
391265
386189
381105
376016
370925
365833
360745
355661
350582
345508
340440
335375
330310
325240
320165
315086
310004
304923
299844
294770
289701
284635
279573
274512
269450
264387
259324
254262
249205
244159
239128
234114
229121
224151
219205
214286
209393
204526
199681
194857
190052
185268
180506
175768
171054
166365
161704
157072
152471
147902
143370
138874
134417
129998
125617
121275
116971
112706
108482
104296
100149
839472
839154
838584
837775
836742
835505
834082
832492
830751
828877
826882
824778
822575
820280
817899
815443
812920
810337
807701
805017
802289
799515
796697
793833
790925
787972
784978
781944
778873
775766
772625
769450
766243
763004
759735
756437
753111
749757
746375
742965
739527
736059
732562
729034
725477
721890
718274
714629
710954
707249
703513
699743
695942
692109
688246
684352
680428
676475
672495
668487
664453
660393
656309
652203
648074
643922
639748
635551
631333
627094
622837
618563
614272
609963
605634
601280
596896
592481
588035
583558
579054
574527
569980
565416
560837
556243
551632
547007
542367
537714
533049
528372
523680
518974
514250
509509
504749
499969
495172
490359
485531
480690
475834
470963
466077
461179
456271
451353
446426
441487
436533
431563
426574
421566
416540
411497
406443
401381
396317
391251
386179
381100