/*--------------------------------*- C++ -*----------------------------------*\
  =========                 |
  \\      /  F ield         | OpenFOAM: The Open Source CFD Toolbox
   \\    /   O peration     | Website:  https://openfoam.org
    \\  /    A nd           | Version:  6
     \\/     M anipulation  |
\*---------------------------------------------------------------------------*/
FoamFile
{
    version     2.0;
    format      ascii;
    class       volVectorField;
    location    "0.45";
    object      U;
}
// * * * * * * * * * * * * * * * * * * * * * * * * * * * * * * * * * * * * * //

dimensions      [0 1 -1 0 0 0 0];

internalField   nonuniform List<vector> 
12225
(
(9.63175 0.0443021 0)
(9.48754 0.0965489 0)
(9.23341 0.0588061 0)
(8.979 0.0157901 0)
(8.71232 0.0157834 0)
(8.42913 0.0405873 0)
(8.15672 0.0612135 0)
(7.90854 0.0656389 0)
(7.70308 0.0555872 0)
(7.52859 0.04069 0)
(7.39018 0.0265467 0)
(7.25073 0.0211112 0)
(7.14399 0.0174986 0)
(7.00849 0.0220019 0)
(6.96777 0.0108632 0)
(6.84053 0.0214581 0)
(6.94126 -0.0210932 0)
(6.8693 -0.0150145 0)
(9.82979 0.0397722 0)
(10.0381 -0.0410388 0)
(10.1537 0.0122252 0)
(10.1943 0.0664952 0)
(10.2153 0.0859094 0)
(10.2293 0.0777335 0)
(10.2296 0.0620372 0)
(10.2093 0.0502144 0)
(10.1828 0.0461005 0)
(10.1661 0.0475794 0)
(10.1686 0.0535764 0)
(10.1841 0.0575994 0)
(10.2112 0.0610584 0)
(10.2395 0.0508833 0)
(10.2797 0.0384039 0)
(10.3222 0.0145093 0)
(10.3864 -0.025541 0)
(10.4679 -0.0597024 0)
(9.97837 0.0160026 0)
(9.84478 0.0859835 0)
(9.90493 0.0743516 0)
(10.0697 0.0629252 0)
(10.2014 0.065571 0)
(10.2684 0.0751683 0)
(10.2995 0.0839397 0)
(10.3202 0.0825091 0)
(10.3414 0.0682851 0)
(10.3637 0.0456289 0)
(10.3882 0.0233351 0)
(10.419 0.00728926 0)
(10.4627 0.000755977 0)
(10.5199 -0.00383978 0)
(10.5865 -0.00824918 0)
(10.6581 -0.0243307 0)
(10.7358 -0.0529266 0)
(10.8111 -0.103595 0)
(9.82733 0.0841846 0)
(9.99498 0.022362 0)
(10.0465 -0.0549078 0)
(10.0822 -0.0574308 0)
(10.075 -0.0178764 0)
(10.0688 0.0199646 0)
(10.1099 0.0420916 0)
(10.1829 0.051092 0)
(10.247 0.0525312 0)
(10.2776 0.0487353 0)
(10.2789 0.040606 0)
(10.2738 0.0281086 0)
(10.2854 0.0128714 0)
(10.3242 -0.0074594 0)
(10.3871 -0.0334143 0)
(10.4678 -0.0670545 0)
(10.5554 -0.112044 0)
(10.6419 -0.174232 0)
(9.98466 0.0084993 0)
(9.94761 0.0122742 0)
(9.91975 0.0479963 0)
(9.96131 0.0816568 0)
(10.0438 0.0916152 0)
(10.1186 0.0717908 0)
(10.1792 0.0371199 0)
(10.2384 0.0114589 0)
(10.3071 0.00540098 0)
(10.3797 0.0110028 0)
(10.4383 0.0147748 0)
(10.4678 0.00864875 0)
(10.4675 -0.00679032 0)
(10.4514 -0.0311358 0)
(10.4394 -0.0624183 0)
(10.4466 -0.100757 0)
(10.4763 -0.149528 0)
(10.5256 -0.207966 0)
(9.77488 0.138743 0)
(9.88041 -0.00531137 0)
(9.92503 -0.0699215 0)
(9.96778 -0.0798268 0)
(10.0403 -0.0565221 0)
(10.1332 -0.0163477 0)
(10.208 0.0152256 0)
(10.2478 0.0276338 0)
(10.2745 0.0255657 0)
(10.3151 0.0181529 0)
(10.3742 0.0125505 0)
(10.4403 0.00938719 0)
(10.4989 0.00350115 0)
(10.5427 -0.013263 0)
(10.5687 -0.0458556 0)
(10.5852 -0.0927459 0)
(10.5962 -0.15265 0)
(10.6131 -0.217125 0)
(10.009 0.101146 0)
(9.9131 -0.0123435 0)
(9.87587 -0.00882772 0)
(9.86051 0.0175384 0)
(9.89689 0.00898177 0)
(9.98453 -0.012304 0)
(10.1041 -0.0276566 0)
(10.2243 -0.0347848 0)
(10.3166 -0.0381514 0)
(10.3659 -0.040728 0)
(10.3758 -0.0415065 0)
(10.3644 -0.0397794 0)
(10.3491 -0.0391922 0)
(10.3435 -0.0468426 0)
(10.3519 -0.0696637 0)
(10.3732 -0.11006 0)
(10.4042 -0.166195 0)
(10.4361 -0.23395 0)
(10.284 -0.0186717 0)
(10.0617 0.00346587 0)
(10.0025 -0.048164 0)
(10.0413 -0.0613022 0)
(10.0541 -0.0576859 0)
(10.0618 -0.049775 0)
(10.1029 -0.0423921 0)
(10.1784 -0.0339374 0)
(10.2633 -0.0210019 0)
(10.3295 -0.00534814 0)
(10.3652 0.00649585 0)
(10.378 0.00786894 0)
(10.3874 -0.00585723 0)
(10.4058 -0.0366093 0)
(10.4403 -0.0817689 0)
(10.4825 -0.136707 0)
(10.5287 -0.195223 0)
(10.5652 -0.254426 0)
(10.1682 0.180819 0)
(10.129 0.168729 0)
(10.0135 0.0581429 0)
(9.92333 -0.00266748 0)
(9.89758 -0.0488218 0)
(9.93178 -0.0940655 0)
(10.0169 -0.123359 0)
(10.1363 -0.12666 0)
(10.2629 -0.106138 0)
(10.3658 -0.0729441 0)
(10.4252 -0.0409023 0)
(10.4406 -0.0220478 0)
(10.4274 -0.0233399 0)
(10.4043 -0.0461679 0)
(10.3873 -0.0876746 0)
(10.3871 -0.140858 0)
(10.402 -0.201407 0)
(10.4375 -0.261468 0)
(9.70238 -0.100357 0)
(9.8494 -0.0419079 0)
(10.0041 -0.0341973 0)
(10.0861 0.00257954 0)
(10.0872 0.00691769 0)
(10.0555 -0.0389205 0)
(10.0258 -0.104497 0)
(10.009 -0.151069 0)
(10.0087 -0.156547 0)
(10.0236 -0.123334 0)
(10.047 -0.0725384 0)
(10.0715 -0.0317457 0)
(10.0944 -0.0208941 0)
(10.1188 -0.0458033 0)
(10.1457 -0.100462 0)
(10.1774 -0.171406 0)
(10.2106 -0.248968 0)
(10.248 -0.322892 0)
(9.66213 0.0379231 0)
(9.79668 -0.0176038 0)
(9.87599 -0.0535096 0)
(9.96367 -0.0786465 0)
(10.0476 -0.0971146 0)
(10.112 -0.10276 0)
(10.1345 -0.0964523 0)
(10.1095 -0.083399 0)
(10.0617 -0.0676616 0)
(10.0276 -0.0505364 0)
(10.0326 -0.0344229 0)
(10.0793 -0.026498 0)
(10.1521 -0.0354744 0)
(10.229 -0.0646581 0)
(10.2914 -0.112693 0)
(10.3319 -0.17214 0)
(10.3513 -0.239117 0)
(10.3578 -0.308323 0)
(9.99351 -0.0462028 0)
(10.0281 -0.052566 0)
(9.90367 -0.0343649 0)
(9.84915 -0.0209621 0)
(9.82029 -0.043149 0)
(9.79936 -0.0878353 0)
(9.7905 -0.127109 0)
(9.79761 -0.144283 0)
(9.82369 -0.139733 0)
(9.87037 -0.123076 0)
(9.93263 -0.10555 0)
(9.99981 -0.0969736 0)
(10.0591 -0.103583 0)
(10.1047 -0.126036 0)
(10.1392 -0.162951 0)
(10.1658 -0.211163 0)
(10.1958 -0.269225 0)
(10.2222 -0.334737 0)
(9.90583 -0.0528917 0)
(9.85283 -0.0516521 0)
(9.86425 -0.0466094 0)
(9.96407 -0.0727255 0)
(10.0528 -0.0796328 0)
(10.0747 -0.0688648 0)
(10.043 -0.064861 0)
(10.0025 -0.0786841 0)
(9.98573 -0.103105 0)
(10.0006 -0.124139 0)
(10.0385 -0.133586 0)
(10.0878 -0.133921 0)
(10.1401 -0.134936 0)
(10.194 -0.148358 0)
(10.2511 -0.179241 0)
(10.31 -0.228401 0)
(10.3675 -0.289194 0)
(10.414 -0.354366 0)
(9.85388 -0.0125961 0)
(9.83662 -0.0371313 0)
(9.9403 -0.05939 0)
(10.0473 -0.0830949 0)
(10.0688 -0.0905076 0)
(10.0479 -0.0866993 0)
(10.0373 -0.0891265 0)
(10.0503 -0.104696 0)
(10.0732 -0.122589 0)
(10.0908 -0.13065 0)
(10.0984 -0.130031 0)
(10.0998 -0.131537 0)
(10.1029 -0.146594 0)
(10.1133 -0.180534 0)
(10.1322 -0.230312 0)
(10.1569 -0.288793 0)
(10.1798 -0.347066 0)
(10.1985 -0.397981 0)
(9.92626 0.000237241 0)
(10.0313 -0.105614 0)
(10.0114 -0.163771 0)
(9.97697 -0.144478 0)
(9.9442 -0.098624 0)
(9.93924 -0.0736801 0)
(9.96841 -0.0901007 0)
(10.0149 -0.132186 0)
(10.0586 -0.16783 0)
(10.0889 -0.178423 0)
(10.1059 -0.169817 0)
(10.1164 -0.160995 0)
(10.127 -0.167596 0)
(10.1398 -0.19541 0)
(10.1543 -0.239368 0)
(10.1669 -0.291081 0)
(10.176 -0.342347 0)
(10.1789 -0.388187 0)
(9.83057 -0.0981057 0)
(9.91757 -0.0953876 0)
(9.93918 -0.0847263 0)
(9.97192 -0.0688957 0)
(9.99466 -0.0684638 0)
(10.0173 -0.10006 0)
(10.0339 -0.144335 0)
(10.0348 -0.173257 0)
(10.0221 -0.176046 0)
(10.0068 -0.161353 0)
(10.0008 -0.14598 0)
(10.0101 -0.144344 0)
(10.0336 -0.161841 0)
(10.0648 -0.197627 0)
(10.0956 -0.244844 0)
(10.1211 -0.296575 0)
(10.1373 -0.346441 0)
(10.1445 -0.389795 0)
(9.92735 0.0750932 0)
(9.94167 -0.0946919 0)
(9.977 -0.163743 0)
(10.012 -0.151062 0)
(10.0373 -0.110849 0)
(10.0528 -0.0793509 0)
(10.049 -0.0699777 0)
(10.022 -0.0799577 0)
(9.98203 -0.100082 0)
(9.94261 -0.125057 0)
(9.91524 -0.156476 0)
(9.90715 -0.197142 0)
(9.9181 -0.246158 0)
(9.9421 -0.297761 0)
(9.96882 -0.343843 0)
(9.99056 -0.379882 0)
(9.99999 -0.402937 0)
(9.99675 -0.417059 0)
(10.0316 0.0749571 0)
(9.98286 -0.138281 0)
(9.93783 -0.19856 0)
(9.8986 -0.160298 0)
(9.84907 -0.125112 0)
(9.83716 -0.125364 0)
(9.86422 -0.137541 0)
(9.90632 -0.135935 0)
(9.94609 -0.121444 0)
(9.9753 -0.112862 0)
(9.99242 -0.126237 0)
(9.99853 -0.163256 0)
(9.99518 -0.213457 0)
(9.9826 -0.262171 0)
(9.96257 -0.297366 0)
(9.9364 -0.31644 0)
(9.90755 -0.321119 0)
(9.87815 -0.321155 0)
(10.1487 -0.0673586 0)
(10.1013 -0.0647018 0)
(10.0163 -0.00268753 0)
(9.95623 -0.0194687 0)
(9.94297 -0.092591 0)
(9.9674 -0.165525 0)
(9.99169 -0.20619 0)
(9.99765 -0.211636 0)
(9.99193 -0.197817 0)
(9.98287 -0.183289 0)
(9.97154 -0.179637 0)
(9.95536 -0.190319 0)
(9.93436 -0.212432 0)
(9.91049 -0.239425 0)
(9.88895 -0.264975 0)
(9.87297 -0.286323 0)
(9.86668 -0.303975 0)
(9.87012 -0.320677 0)
(9.85141 -0.108935 0)
(9.93906 -0.0531041 0)
(10.0533 0.0148088 0)
(10.1496 -0.0139806 0)
(10.1674 -0.0759922 0)
(10.1458 -0.115292 0)
(10.1258 -0.120693 0)
(10.1074 -0.104934 0)
(10.0866 -0.087426 0)
(10.072 -0.0802695 0)
(10.0685 -0.0856534 0)
(10.0702 -0.102177 0)
(10.0693 -0.127859 0)
(10.0621 -0.161517 0)
(10.0495 -0.20157 0)
(10.0333 -0.245722 0)
(10.0166 -0.292037 0)
(10.0008 -0.336864 0)
(10.1247 -0.136442 0)
(10.1009 -0.222051 0)
(10.1062 -0.133313 0)
(10.0891 -0.100599 0)
(10.0699 -0.13336 0)
(10.0514 -0.176826 0)
(10.0548 -0.19117 0)
(10.0787 -0.176146 0)
(10.1091 -0.154532 0)
(10.1405 -0.144517 0)
(10.1699 -0.148665 0)
(10.1919 -0.16043 0)
(10.2022 -0.173597 0)
(10.2008 -0.187004 0)
(10.1861 -0.203866 0)
(10.1582 -0.226936 0)
(10.116 -0.25627 0)
(10.0633 -0.289983 0)
(10.4208 -0.150197 0)
(10.2067 -0.110448 0)
(10.134 -0.0844882 0)
(10.1395 -0.0700443 0)
(10.1118 -0.0855 0)
(10.0186 -0.111606 0)
(9.91919 -0.135117 0)
(9.86286 -0.153494 0)
(9.86452 -0.164223 0)
(9.91567 -0.167104 0)
(9.98906 -0.165696 0)
(10.0531 -0.162465 0)
(10.0883 -0.157292 0)
(10.0919 -0.148499 0)
(10.0708 -0.136419 0)
(10.0319 -0.125188 0)
(9.98299 -0.118325 0)
(9.92627 -0.124212 0)
(10.0271 -0.0366542 0)
(10.0606 0.0183149 0)
(10.1297 0.00772078 0)
(10.1765 0.0152825 0)
(10.1794 0.0340218 0)
(10.1727 0.0300701 0)
(10.1842 -0.0292933 0)
(10.197 -0.132146 0)
(10.1844 -0.232319 0)
(10.1432 -0.290453 0)
(10.0883 -0.295711 0)
(10.0359 -0.260562 0)
(9.99751 -0.206534 0)
(9.97775 -0.154278 0)
(9.97689 -0.116254 0)
(9.98841 -0.0975842 0)
(10.0064 -0.0958749 0)
(10.0212 -0.106165 0)
(9.95575 0.03248 0)
(9.94678 -0.0917158 0)
(9.90693 -0.158255 0)
(9.92706 -0.139427 0)
(9.96771 -0.104853 0)
(10.018 -0.0989969 0)
(10.0629 -0.10842 0)
(10.0719 -0.108737 0)
(10.0323 -0.0971344 0)
(9.96163 -0.0875734 0)
(9.88941 -0.0908382 0)
(9.83671 -0.105614 0)
(9.81065 -0.123791 0)
(9.80782 -0.13861 0)
(9.81818 -0.146324 0)
(9.83135 -0.147666 0)
(9.83871 -0.143325 0)
(9.83677 -0.135549 0)
(10.0302 0.0631037 0)
(10.2097 0.0179983 0)
(10.1839 -0.0434968 0)
(10.1035 -0.0560374 0)
(10.0551 -0.053763 0)
(10.0476 -0.0840713 0)
(10.0611 -0.131142 0)
(10.0689 -0.160278 0)
(10.0557 -0.159228 0)
(10.0231 -0.141059 0)
(9.97901 -0.125721 0)
(9.92975 -0.123242 0)
(9.87969 -0.131203 0)
(9.83257 -0.140805 0)
(9.79294 -0.144055 0)
(9.76421 -0.139067 0)
(9.74717 -0.127311 0)
(9.74312 -0.114313 0)
(10.0525 -0.117548 0)
(10.1627 -0.0598411 0)
(10.1337 -0.00173524 0)
(10.1132 -0.0191023 0)
(10.129 -0.0536246 0)
(10.121 -0.0736938 0)
(10.0731 -0.0752511 0)
(10.0117 -0.0696975 0)
(9.96933 -0.0697176 0)
(9.95974 -0.0785032 0)
(9.97312 -0.0899738 0)
(9.98783 -0.0963668 0)
(9.98679 -0.0946132 0)
(9.96468 -0.0879768 0)
(9.92925 -0.0824812 0)
(9.89134 -0.082966 0)
(9.86127 -0.091125 0)
(9.84358 -0.105389 0)
(9.9654 -0.114016 0)
(9.90983 -0.10358 0)
(9.94261 -0.0658104 0)
(10.0061 -0.0526592 0)
(10.0315 -0.0548376 0)
(10.0168 -0.068646 0)
(9.99524 -0.0852822 0)
(9.98038 -0.0927122 0)
(9.9667 -0.086993 0)
(9.94911 -0.0739064 0)
(9.92948 -0.0622969 0)
(9.91301 -0.0580246 0)
(9.90422 -0.0619182 0)
(9.90389 -0.0724723 0)
(9.90868 -0.0868789 0)
(9.91377 -0.102295 0)
(9.91497 -0.11658 0)
(9.91191 -0.125828 0)
(9.85757 -0.120986 0)
(9.95684 -0.0635585 0)
(10.04 -0.044813 0)
(10.0666 -0.0659674 0)
(10.0419 -0.0706964 0)
(10.0167 -0.0639404 0)
(10.0187 -0.0658651 0)
(10.0348 -0.0814483 0)
(10.0455 -0.10272 0)
(10.0442 -0.119966 0)
(10.0342 -0.12799 0)
(10.0229 -0.126271 0)
(10.0153 -0.116459 0)
(10.012 -0.10093 0)
(10.0064 -0.0840861 0)
(9.99127 -0.0711277 0)
(9.96184 -0.0669542 0)
(9.91739 -0.0743005 0)
(9.99545 0.0684328 0)
(10.0337 -0.0787184 0)
(10.0857 -0.108146 0)
(10.184 -0.0695946 0)
(10.2888 -0.045325 0)
(10.3353 -0.0522023 0)
(10.3138 -0.0645191 0)
(10.2456 -0.0647813 0)
(10.1603 -0.0538388 0)
(10.0824 -0.0413232 0)
(10.0231 -0.0362377 0)
(9.98344 -0.0417915 0)
(9.95792 -0.0547568 0)
(9.94162 -0.0685023 0)
(9.92791 -0.0769291 0)
(9.91139 -0.0783235 0)
(9.88632 -0.0733276 0)
(9.84718 -0.0660683 0)
(10.3208 -0.0708303 0)
(10.1433 -0.0164167 0)
(9.85482 -0.0217001 0)
(9.54457 -0.074502 0)
(9.26012 -0.0937832 0)
(9.02578 -0.0782655 0)
(8.84616 -0.0573143 0)
(8.69781 -0.0473716 0)
(8.56012 -0.0483393 0)
(8.42472 -0.0552803 0)
(8.28563 -0.0647961 0)
(8.1362 -0.0742612 0)
(7.9733 -0.0801618 0)
(7.80368 -0.0780258 0)
(7.64186 -0.0670371 0)
(7.50062 -0.050167 0)
(7.3871 -0.0318624 0)
(7.30111 -0.0204084 0)
(-0.337253 0.0764565 3.70368e-20)
(-0.613094 -0.211762 -3.67103e-20)
(-0.720473 -0.242096 0)
(-0.537623 -0.526569 0)
(-0.209699 -0.706894 0)
(0.19588 -0.786895 3.58046e-20)
(0.67018 -0.798191 0)
(1.18612 -0.768939 0)
(1.70825 -0.722091 0)
(2.20844 -0.66876 0)
(2.67311 -0.614559 -3.40077e-20)
(3.10243 -0.563224 0)
(3.50114 -0.515283 0)
(3.8728 -0.470453 0)
(4.2192 -0.429121 0)
(4.54121 -0.390248 -3.18468e-20)
(4.83815 -0.353399 0)
(5.11005 -0.318878 0)
(5.35568 -0.284009 0)
(5.57319 -0.250954 0)
(5.76253 -0.217257 0)
(5.9184 -0.181727 0)
(6.04245 -0.150118 0)
(6.12763 -0.111067 -2.87578e-20)
(6.17387 -0.0787981 2.84562e-20)
(6.17892 -0.0455423 -2.81793e-20)
(6.1263 -0.000196034 -2.79283e-20)
(6.02989 0.0163953 0)
(5.88093 0.0694923 0)
(5.6653 0.104625 2.73332e-20)
(5.42412 0.0988662 2.71798e-20)
(5.10705 0.232293 0)
(4.71017 0.242212 0)
(4.32282 0.225759 2.67886e-20)
(3.7973 0.663809 0)
(3.04784 0.850732 0)
(2.36831 0.28148 -2.62708e-20)
(1.93242 -0.296716 0)
(1.70159 -0.449398 -2.58714e-20)
(1.65566 -0.358372 -5.13775e-20)
(1.7259 -0.229193 0)
(1.79798 -0.120732 0)
(1.80543 -0.0295996 0)
(1.75265 0.0335553 0)
(1.67709 0.0584766 0)
(1.61066 0.0588328 -4.93934e-20)
(1.56177 0.0579287 -4.91784e-20)
(1.52792 0.0675799 -4.8999e-20)
(1.49379 0.0887744 0)
(1.44521 0.120079 4.87233e-20)
(1.36737 0.165489 0)
(1.24238 0.214443 -4.84895e-20)
(0.994137 0.257086 -4.83467e-20)
(0.659235 0.299567 0)
(0.239702 0.199436 0)
(-0.0239987 0.0420192 0)
(0.224813 -0.393266 -4.71394e-20)
(0.273649 -0.593445 0)
(0.764402 -0.445964 0)
(0.601452 -1.0204 0)
(0.938705 -0.890151 0)
(-0.306971 1.4286 0)
(-4.15415 1.80008 0)
(-6.23806 1.45103 0)
(-8.3408 1.22219 0)
(-9.90171 0.943145 3.75333e-20)
(-11.2396 0.738795 0)
(-12.2508 0.555211 0)
(-13.0545 0.416844 -3.12773e-20)
(-13.6465 0.300906 -2.96956e-20)
(-14.0843 0.210033 0)
(-14.3805 0.133748 2.7308e-20)
(-14.5626 0.0710461 -2.64607e-20)
(-14.6396 0.0172862 0)
(-14.6233 -0.0287885 2.53588e-20)
(-14.5317 -0.0703945 0)
(-14.3686 -0.108092 0)
(-14.1406 -0.141774 -2.49332e-20)
(-13.8545 -0.171008 0)
(-13.5175 -0.195489 2.52454e-20)
(-13.1384 -0.214979 0)
(-12.7249 -0.22948 -2.58373e-20)
(-12.2857 -0.239378 -2.61902e-20)
(-11.828 -0.245125 -2.65598e-20)
(-11.3588 -0.247255 -5.3867e-20)
(-10.8837 -0.246432 5.46012e-20)
(-10.4078 -0.243208 0)
(-9.93488 -0.238182 0)
(-9.4681 -0.231845 0)
(-9.00972 -0.22466 5.71172e-20)
(-8.56125 -0.216998 5.75947e-20)
(-8.12369 -0.209163 -5.80013e-20)
(-7.69748 -0.201404 0)
(-7.28271 -0.193888 5.85951e-20)
(-6.87911 -0.186755 5.87823e-20)
(-6.48621 -0.180076 5.88982e-20)
(-6.10337 -0.173894 0)
(-5.72982 -0.168234 0)
(-5.36469 -0.163084 0)
(-5.00712 -0.158421 5.87081e-20)
(-4.6562 -0.154213 0)
(-4.31106 -0.150414 0)
(-3.97089 -0.146958 -5.79924e-20)
(-3.63505 -0.143754 0)
(-3.30316 -0.14066 0)
(-2.9752 -0.137488 -5.69172e-20)
(-2.65171 -0.133996 0)
(-2.3338 -0.129922 0)
(-2.0232 -0.125027 5.55642e-20)
(-1.72215 -0.11916 5.5056e-20)
(-1.43316 -0.112326 0)
(-1.15872 -0.104681 -5.39534e-20)
(-0.900884 -0.0965678 0)
(-0.660842 -0.0884819 5.2742e-20)
(-0.438456 -0.0810101 0)
(-0.232077 -0.0746715 5.14465e-20)
(-0.0382623 -0.0698897 5.07772e-20)
(0.147983 -0.0670508 0)
(0.332894 -0.0666026 0)
(0.522538 -0.0688481 0)
(0.723521 -0.0735007 0)
(0.941079 -0.0793264 0)
(1.17679 -0.0845788 0)
(1.4274 -0.0873877 0)
(1.68468 -0.0862767 4.57297e-20)
(1.93707 -0.0806711 -4.515e-20)
(2.17223 -0.071049 0)
(2.3798 -0.0586803 0)
(2.55322 -0.0451373 0)
(2.69024 -0.0318667 0)
(2.79237 -0.019871 -8.39801e-20)
(2.8637 -0.00968647 0)
(2.90966 -0.00200551 8.13349e-20)
(2.93674 0.00260755 -8.0033e-20)
(2.95213 0.0063651 0)
(2.95962 0.0124377 0)
(2.95805 0.0147572 0)
(2.95471 0.00346145 7.51433e-20)
(2.96827 -0.00481946 7.40182e-20)
(2.9897 0.0174331 0)
(2.9737 0.0308138 7.18795e-20)
(2.95622 -0.0137832 7.08541e-20)
(3.01139 -0.0235856 -6.98599e-20)
(3.03514 0.0602604 0)
(2.92743 0.0386366 0)
(2.90712 -0.122683 -6.69947e-20)
(3.06892 -0.0531832 0)
(2.84805 0.22833 0)
(2.04589 0.212253 0)
(1.26971 -0.0428326 0)
(0.821175 -0.189963 6.19546e-20)
(0.682955 -0.210722 6.10021e-20)
(0.781935 -0.170635 0)
(1.00571 -0.10714 5.97236e-20)
(1.24679 -0.0562527 0)
(1.42248 -0.0322135 0)
(1.50038 -0.0310882 5.7474e-20)
(1.48439 -0.030866 0)
(1.40477 -0.019974 5.56209e-20)
(1.32852 -0.0379904 0)
(1.33507 -0.10586 0)
(1.46597 -0.154732 5.30015e-20)
(1.70462 -0.0905228 0)
(1.88723 0.0517062 5.14553e-20)
(1.82905 0.100555 0)
(1.66959 0.0218525 0)
(1.65125 -0.0781908 0)
(1.88354 -0.132146 -4.77675e-20)
(2.31118 -0.119451 0)
(2.73857 -0.0600326 4.59416e-20)
(2.97144 0.00126112 0)
(2.92366 0.0452219 0)
(2.56062 0.0964728 0)
(1.80798 0.166709 0)
(0.741373 0.218614 0)
(-0.385473 0.225064 0)
(-1.37971 0.196879 0)
(-2.18848 0.149423 -6.53288e-20)
(-2.82231 0.0807609 0)
(-3.35388 -0.0159662 0)
(-0.110205 0.885094 -1.10979e-19)
(-0.360757 0.794581 1.10108e-19)
(-0.0937522 0.189373 0)
(0.288417 -0.765748 -7.22885e-20)
(0.657342 -1.37268 0)
(1.05004 -1.64224 -3.56806e-20)
(1.45785 -1.69078 7.04663e-20)
(1.86959 -1.62447 6.97952e-20)
(2.27287 -1.51344 0)
(2.6605 -1.39316 6.83169e-20)
(3.03034 -1.27744 3.39345e-20)
(3.38314 -1.17057 0)
(3.72084 -1.07262 0)
(4.04476 -0.982313 0)
(4.35561 -0.898058 0)
(4.65288 -0.817723 3.18121e-20)
(4.93608 -0.739317 0)
(5.20417 -0.661159 -6.17117e-20)
(5.45524 -0.580854 0)
(5.6878 -0.49766 0)
(5.89849 -0.409656 5.93462e-20)
(6.08479 -0.315524 0)
(6.24178 -0.216265 -5.79109e-20)
(6.3667 -0.108477 2.87353e-20)
(6.45219 0.00370538 -2.84342e-20)
(6.49966 0.120036 2.8157e-20)
(6.50715 0.241539 2.78991e-20)
(6.47723 0.350767 0)
(6.40119 0.463555 0)
(6.28336 0.565515 -2.728e-20)
(6.13782 0.638135 2.6864e-20)
(5.93224 0.740766 0)
(5.73897 0.818651 0)
(5.54617 0.886693 -2.66909e-20)
(5.20904 1.06633 0)
(4.99217 1.23096 0)
(4.99694 1.3997 2.60914e-20)
(4.61292 1.43636 0)
(3.77259 0.926548 -2.5749e-20)
(3.04326 0.220697 5.11747e-20)
(2.58873 -0.123916 0)
(2.3345 -0.126887 0)
(2.22379 -0.0203769 1.00259e-19)
(2.18956 0.0506802 9.95584e-20)
(2.19416 0.0605421 9.89329e-20)
(2.22108 0.043572 -4.90723e-20)
(2.25826 0.0336567 4.91039e-20)
(2.29837 0.0547728 1.46521e-19)
(2.32411 0.119432 -9.73254e-20)
(2.32501 0.216999 -4.86266e-20)
(2.25705 0.333283 0)
(2.13095 0.459495 4.83757e-20)
(1.90335 0.630276 -4.83262e-20)
(1.75918 0.629499 0)
(1.32492 0.625741 0)
(1.32715 0.341134 0)
(1.0411 0.0187512 4.7032e-20)
(1.13585 -0.44721 0)
(0.524248 0.223282 -9.2088e-20)
(-3.02187 2.55311 0)
(-4.92194 3.53279 -8.77469e-20)
(-6.87721 4.09721 0)
(-8.91567 3.79414 8.27281e-20)
(-9.918 3.29804 0)
(-11.0902 2.75444 -7.53718e-20)
(-11.7677 2.21435 3.40267e-20)
(-12.4632 1.74825 0)
(-12.9107 1.34184 6.389e-20)
(-13.3186 1.00799 3.12331e-20)
(-13.5831 0.727665 2.96788e-20)
(-13.793 0.496605 0)
(-13.9095 0.300861 2.63927e-20)
(-13.9718 0.134199 2.64856e-20)
(-13.9647 -0.0119361 0)
(-13.9042 -0.141924 -2.53877e-20)
(-13.7717 -0.26048 4.96589e-20)
(-13.5775 -0.368312 0)
(-13.3225 -0.464899 2.49568e-20)
(-13.0144 -0.548536 0)
(-12.6602 -0.618067 -7.54311e-20)
(-12.2682 -0.672803 0)
(-11.8473 -0.713114 7.72704e-20)
(-11.4049 -0.739996 2.62091e-20)
(-10.9489 -0.755035 -2.63377e-20)
(-10.4852 -0.759911 -5.34765e-20)
(-10.0192 -0.756473 5.42621e-20)
(-9.55505 -0.746389 0)
(-9.09605 -0.731286 0)
(-8.64454 -0.712581 0)
(-8.20218 -0.691516 -1.71253e-19)
(-7.76999 -0.669138 -5.76282e-20)
(-7.34853 -0.646277 5.80344e-20)
(-6.93794 -0.623618 0)
(-6.53811 -0.601656 5.85322e-20)
(-6.14866 -0.580754 -5.88144e-20)
(-5.76908 -0.561143 -5.893e-20)
(-5.39874 -0.54295 0)
(-5.03692 -0.526221 0)
(-4.68286 -0.510935 0)
(-4.33576 -0.497024 -5.87381e-20)
(-3.99484 -0.484394 0)
(-3.65934 -0.472918 1.16552e-19)
(-3.32854 -0.462427 1.74e-19)
(-3.00187 -0.452666 -1.15328e-19)
(-2.67899 -0.443236 0)
(-2.3599 -0.433565 -5.6878e-20)
(-2.0451 -0.422911 0)
(-1.73563 -0.410437 -1.12079e-19)
(-1.43315 -0.395373 5.55369e-20)
(-1.13989 -0.377251 5.50364e-20)
(-0.858221 -0.356204 0)
(-0.59077 -0.332902 1.61905e-19)
(-0.33962 -0.308558 -1.06747e-19)
(-0.106154 -0.284648 -5.2767e-20)
(0.109803 -0.262846 0)
(0.309688 -0.244586 -5.14311e-20)
(0.49687 -0.231241 -1.52195e-19)
(0.676073 -0.223972 0)
(0.853378 -0.224039 -9.86895e-20)
(1.03536 -0.231827 -9.7344e-20)
(1.22853 -0.246286 -9.6045e-20)
(1.4377 -0.264386 0)
(1.6643 -0.28123 0)
(1.90474 -0.291092 0)
(2.15026 -0.289339 4.5659e-20)
(2.38896 -0.274077 4.51157e-20)
(2.60894 -0.246664 0)
(2.80091 -0.210899 8.78216e-20)
(2.95943 -0.171483 8.65583e-20)
(3.08306 -0.132673 0)
(3.17362 -0.0976409 8.3941e-20)
(3.23541 -0.0682485 1.6523e-19)
(3.27427 -0.0451198 -8.13037e-20)
(3.29588 -0.0286479 -7.99758e-20)
(3.30473 -0.0193965 0)
(3.30783 -0.0151741 0)
(3.31581 -0.0109297 0)
(3.32684 -0.00857622 -7.51181e-20)
(3.32373 -0.0159616 7.39551e-20)
(3.31801 -0.0221528 1.45785e-19)
(3.35628 -0.011269 -7.18543e-20)
(3.39537 -0.0114218 7.08062e-20)
(3.36687 -0.0385248 6.98357e-20)
(3.38573 -0.0252446 0)
(3.48711 0.0229903 0)
(3.46227 -0.0163145 -6.69404e-20)
(3.37769 -0.0503644 0)
(3.45211 0.150593 0)
(3.50694 0.43287 1.28281e-19)
(3.49313 0.542297 0)
(3.52611 0.412353 6.18635e-20)
(3.5924 0.147465 -6.08327e-20)
(3.60827 -0.0592699 0)
(3.61832 -0.124254 5.96134e-20)
(3.60928 -0.105281 0)
(3.51193 -0.0561535 0)
(3.35501 0.0185861 -5.73717e-20)
(3.16793 0.0827652 1.12935e-19)
(2.92814 0.0765323 -5.55366e-20)
(2.74639 0.0226205 0)
(2.71661 -0.0226061 0)
(2.69382 -0.0839397 5.29686e-20)
(2.60023 -0.149488 0)
(2.60532 -0.0938086 5.14253e-20)
(2.70027 0.0670044 0)
(2.72204 0.129754 0)
(2.69184 -0.0150317 0)
(2.77456 -0.233394 4.77229e-20)
(3.03571 -0.329431 0)
(3.32041 -0.251499 -4.59135e-20)
(3.38314 -0.0619249 0)
(3.04549 0.174826 0)
(2.234 0.430007 8.53161e-20)
(1.06218 0.644416 -8.25332e-20)
(-0.150072 0.731853 0)
(-1.16296 0.695132 0)
(-1.98263 0.600762 0)
(-2.64958 0.483758 1.95188e-19)
(-3.20434 0.329893 0)
(-3.70971 0.109114 -1.11043e-19)
(0.0333636 0.876725 6.78863e-24)
(-0.0167676 1.05634 -1.4665e-19)
(0.492692 -0.391405 0)
(0.97176 -1.61863 1.43997e-19)
(1.32995 -2.22797 0)
(1.62209 -2.39798 0)
(1.89737 -2.35329 -3.48482e-22)
(2.17557 -2.2346 -6.96601e-20)
(2.45918 -2.10569 -6.85418e-20)
(2.74519 -1.98724 -6.82248e-20)
(3.03017 -1.88137 0)
(3.31174 -1.78522 0)
(3.58872 -1.69553 6.54424e-20)
(3.86082 -1.60968 1.29272e-19)
(4.12808 -1.52556 -1.27647e-19)
(4.39059 -1.44097 0)
(4.64808 -1.35391 -1.24393e-19)
(4.90015 -1.26239 6.17199e-20)
(5.14564 -1.16382 0)
(5.38305 -1.05662 -1.19612e-19)
(5.61057 -0.938528 -5.93582e-20)
(5.8248 -0.806765 1.166e-19)
(6.02316 -0.661318 5.79186e-20)
(6.20046 -0.498282 0)
(6.35192 -0.318912 -1.12579e-19)
(6.472 -0.123974 -1.11422e-19)
(6.54912 0.0892228 0)
(6.58271 0.304563 -1.09361e-19)
(6.56491 0.526719 0)
(6.49337 0.745197 -1.07756e-19)
(6.37517 0.928098 -5.39288e-20)
(6.19311 1.10156 0)
(5.99064 1.2326 0)
(5.78534 1.31767 0)
(5.54848 1.44126 0)
(5.38848 1.52141 0)
(5.28724 1.55625 0)
(5.10311 1.65294 -1.03145e-19)
(4.86318 1.67467 1.53765e-19)
(4.49083 1.41223 0)
(3.93742 0.894583 0)
(3.45148 0.434611 0)
(3.1773 0.202438 -2.12911e-22)
(3.06785 0.101829 -9.93488e-20)
(3.05386 0.0314594 -1.97129e-19)
(3.09268 -0.0159174 1.96e-19)
(3.15031 -0.0267006 9.73126e-20)
(3.20388 0.00544863 -9.74019e-20)
(3.2323 0.104401 4.2893e-22)
(3.19743 0.286503 -9.65321e-20)
(3.08647 0.528538 0)
(2.86073 0.792251 -9.64051e-20)
(2.52113 0.987739 -2.48006e-23)
(2.10153 1.14969 0)
(1.61046 1.17331 0)
(1.21363 0.802077 9.58912e-20)
(0.70597 0.233291 0)
(-1.49152 1.92828 0)
(-4.03353 4.02691 -8.96974e-20)
(-6.35465 5.32638 -1.74851e-19)
(-7.74351 5.75071 8.69676e-20)
(-8.92318 5.71018 0)
(-9.60029 5.14726 -8.24428e-20)
(-10.1035 4.48222 0)
(-10.625 3.73751 -6.68827e-20)
(-11.0018 3.04316 -7.13642e-20)
(-11.4198 2.4148 1.28831e-19)
(-11.7179 1.86827 5.88213e-20)
(-11.9991 1.40365 0)
(-12.183 1.01037 -1.12699e-19)
(-12.3253 0.680027 0)
(-12.3935 0.397552 -1.59177e-19)
(-12.4148 0.1525 -1.02613e-19)
(-12.3741 -0.0677979 -1.00505e-19)
(-12.2814 -0.269949 9.89749e-20)
(-12.1273 -0.45816 -1.47833e-19)
(-11.9156 -0.631163 0)
(-11.6446 -0.786744 0)
(-11.3214 -0.920782 9.84812e-20)
(-10.9525 -1.03099 1.4972e-19)
(-10.5484 -1.11599 0)
(-10.1177 -1.17693 -5.15208e-20)
(-9.67028 -1.21566 0)
(-9.21354 -1.23523 1.58288e-19)
(-8.75456 -1.23873 7.05907e-22)
(-8.29854 -1.22939 -6.29505e-22)
(-7.84988 -1.2101 -1.10017e-19)
(-7.4115 -1.18354 0)
(-6.98534 -1.15201 1.12778e-19)
(-6.57235 -1.11741 3.46925e-22)
(-6.17272 -1.08126 0)
(-5.78618 -1.04473 0)
(-5.41208 -1.00872 0)
(-5.04961 -0.97392 -1.17354e-19)
(-4.69785 -0.940807 0)
(-4.35589 -0.909709 0)
(-4.02283 -0.880808 0)
(-3.69777 -0.854164 0)
(-3.37984 -0.829724 0)
(-3.06821 -0.807363 -1.17488e-19)
(-2.76205 -0.786917 0)
(-2.46056 -0.768202 -1.16697e-19)
(-2.163 -0.751001 -1.16118e-19)
(-1.86866 -0.734991 1.1546e-19)
(-1.57707 -0.719593 0)
(-1.28801 -0.7039 1.13941e-19)
(-1.00185 -0.686682 0)
(-0.719563 -0.666576 1.12188e-19)
(-0.442793 -0.64229 -1.1123e-19)
(-0.174273 -0.612826 -3.30491e-19)
(0.0836461 -0.578107 0)
(0.328352 -0.538806 -3.23672e-19)
(0.558246 -0.496633 -1.06588e-19)
(0.772606 -0.45387 0)
(0.971927 -0.413625 -2.08039e-19)
(1.15749 -0.37911 -2.05311e-19)
(1.33176 -0.353341 3.03859e-19)
(1.49878 -0.33887 0)
(1.66446 -0.337606 9.85664e-20)
(1.83615 -0.35018 9.72237e-20)
(2.0218 -0.374774 2.87562e-19)
(2.22778 -0.405862 0)
(2.45576 -0.434318 0)
(2.69939 -0.449719 0)
(2.94405 -0.444364 9.1115e-20)
(3.17101 -0.416277 0)
(3.36411 -0.369027 0)
(3.51462 -0.309331 -8.77325e-20)
(3.62158 -0.244716 -8.64802e-20)
(3.68892 -0.182013 0)
(3.7225 -0.126293 0)
(3.72855 -0.0804539 -1.65133e-19)
(3.71347 -0.0456609 0)
(3.68426 -0.0213873 1.5991e-19)
(3.64726 -0.00572447 1.57298e-19)
(3.60584 0.00203689 0)
(3.56331 0.00110024 0)
(3.52678 -0.00533366 -1.50087e-19)
(3.49784 -0.010692 -6.64734e-23)
(3.46881 -0.0139778 -5.93233e-23)
(3.44675 -0.0157362 0)
(3.44394 -0.0173169 -2.83213e-19)
(3.43225 -0.026852 0)
(3.41073 -0.0227815 0)
(3.4502 0.0170241 0)
(3.49919 0.0271197 1.33899e-19)
(3.45417 0.017382 0)
(3.47353 0.162406 -2.60272e-19)
(3.69933 0.437939 -1.28274e-19)
(4.00598 0.547178 0)
(4.23852 0.335683 -1.23568e-19)
(4.32754 0.00363905 0)
(4.32842 -0.191242 0)
(4.33996 -0.218756 -3.57309e-19)
(4.42603 -0.146973 2.353e-19)
(4.55765 -0.0167559 0)
(4.60948 0.121883 2.2895e-19)
(4.53458 0.218411 -1.12772e-19)
(4.40759 0.249272 0)
(4.23774 0.196674 0)
(3.9983 0.0890403 0)
(3.72712 -0.0119764 -3.17532e-19)
(3.40007 -0.0809737 0)
(3.10199 -0.0512903 -1.02796e-19)
(2.97331 0.0776126 0)
(2.89406 0.102259 0)
(2.80004 -0.0950342 0)
(2.80871 -0.352596 0)
(2.94226 -0.43072 0)
(3.04486 -0.258006 0)
(2.89743 0.081069 -1.79665e-19)
(2.36311 0.488657 0)
(1.46102 0.882694 -8.5288e-20)
(0.410569 1.14933 2.47057e-19)
(-0.508457 1.20526 0)
(-1.28021 1.11408 0)
(-1.96499 0.980305 -1.38909e-19)
(-2.58028 0.838564 -1.29848e-19)
(-3.14803 0.666262 1.19174e-19)
(-3.67885 0.419616 1.11003e-19)
(-0.0137519 0.760353 2.21497e-19)
(0.387615 -0.0749564 2.19892e-19)
(0.978543 -1.58795 1.45032e-19)
(1.39849 -2.44629 7.16663e-20)
(1.64613 -2.74178 0)
(1.82141 -2.78524 -1.40562e-19)
(1.99478 -2.75713 6.92599e-20)
(2.17972 -2.71107 0)
(2.36848 -2.64989 6.85259e-20)
(2.5535 -2.57124 0)
(2.73306 -2.47805 -1.33284e-19)
(2.90869 -2.37614 0)
(3.08303 -2.27089 -6.54962e-20)
(3.25868 -2.16567 -1.29411e-19)
(3.43768 -2.06165 1.27815e-19)
(3.62116 -1.95834 0)
(3.80949 -1.85405 1.24605e-19)
(4.00253 -1.7463 0)
(4.19958 -1.63224 0)
(4.39972 -1.50904 1.1986e-19)
(4.60198 -1.37324 0)
(4.80447 -1.22214 -6.31509e-22)
(5.00575 -1.05373 0)
(5.20407 -0.864545 0)
(5.39543 -0.654286 6.86769e-22)
(5.57666 -0.420956 1.11641e-19)
(5.74111 -0.163895 1.09809e-19)
(5.87899 0.108699 1.0957e-19)
(5.98063 0.40414 0)
(6.03373 0.707335 2.14897e-19)
(6.03301 0.985385 0)
(5.9706 1.24836 1.0578e-19)
(5.85633 1.45559 0)
(5.70357 1.59467 0)
(5.5089 1.73011 -1.04521e-19)
(5.29964 1.76011 0)
(5.11554 1.68909 1.03607e-19)
(5.02632 1.75765 1.51877e-22)
(4.98844 1.94362 -2.0466e-19)
(4.82557 1.92157 2.03251e-19)
(4.52446 1.57152 0)
(4.20162 1.08403 0)
(3.94648 0.641697 9.92238e-20)
(3.81002 0.296057 0)
(3.78533 0.04265 9.82193e-20)
(3.83558 -0.10875 -9.76123e-20)
(3.92985 -0.152155 -9.71189e-20)
(4.01109 -0.0912958 0)
(4.03202 0.0920662 9.65186e-20)
(3.95349 0.398251 9.63478e-20)
(3.72082 0.81228 -1.91082e-19)
(3.3364 1.25587 9.62315e-20)
(2.76614 1.67043 9.62435e-20)
(2.02895 2.0136 0)
(1.27375 2.00403 0)
(0.39396 1.68239 -9.57942e-20)
(-1.54769 2.72699 0)
(-4.12045 4.98523 0)
(-6.12576 6.4993 1.79491e-19)
(-7.43152 7.01703 1.73971e-19)
(-8.23029 6.98586 0)
(-8.79923 6.55332 0)
(-9.11234 5.83488 0)
(-9.48796 5.07446 0)
(-9.77771 4.25986 1.42311e-19)
(-10.0626 3.50338 -1.28701e-19)
(-10.2983 2.79268 -1.29013e-19)
(-10.4797 2.16548 -2.40984e-19)
(-10.6166 1.61685 0)
(-10.7038 1.15031 3.52904e-21)
(-10.7609 0.754507 0)
(-10.7854 0.416021 1.0562e-19)
(-10.7849 0.118066 2.23748e-21)
(-10.7495 -0.155473 1.00777e-19)
(-10.673 -0.414949 -9.92293e-20)
(-10.5407 -0.664682 1.78056e-21)
(-10.345 -0.901078 0)
(-10.0816 -1.11727 -9.64968e-20)
(-9.75634 -1.30478 -9.86809e-20)
(-9.37774 -1.45826 -1.97868e-19)
(-8.95785 -1.57514 0)
(-8.50731 -1.65651 1.01034e-19)
(-8.03663 -1.70524 0)
(-7.55423 -1.72579 -2.09821e-19)
(-7.06799 -1.72276 1.07095e-19)
(-6.58443 -1.70095 -1.08698e-19)
(-6.10963 -1.66479 1.10238e-19)
(-5.64855 -1.61854 2.2193e-19)
(-5.20507 -1.56608 -1.13014e-19)
(-4.78168 -1.51071 1.14208e-19)
(-4.37965 -1.455 0)
(-3.99914 -1.40079 -2.31553e-19)