/*--------------------------------*- C++ -*----------------------------------*\
  =========                 |
  \\      /  F ield         | OpenFOAM: The Open Source CFD Toolbox
   \\    /   O peration     | Website:  https://openfoam.org
    \\  /    A nd           | Version:  6
     \\/     M anipulation  |
\*---------------------------------------------------------------------------*/
FoamFile
{
    version     2.0;
    format      ascii;
    class       volScalarField;
    location    "0.5";
    object      k;
}
// * * * * * * * * * * * * * * * * * * * * * * * * * * * * * * * * * * * * * //

dimensions      [0 2 -2 0 0 0 0];

internalField   nonuniform List<scalar> 
12225
(
0.000197339
0.000245231
0.000154368
5.57346e-05
2.64865e-05
2.02776e-05
2.00555e-05
2.25953e-05
2.60879e-05
2.74724e-05
2.85692e-05
3.09788e-05
3.94619e-05
7.38817e-05
0.000185521
0.000284243
0.000330891
0.000344937
2.53974e-05
3.09672e-05
2.90876e-05
2.32708e-05
2.0692e-05
2.00325e-05
2.00183e-05
2.0395e-05
2.18069e-05
2.3138e-05
2.38606e-05
2.44594e-05
2.55816e-05
2.82753e-05
3.63739e-05
4.6905e-05
7.07632e-05
9.69918e-05
2.00935e-05
1.27814e-05
1.30958e-05
1.4788e-05
1.56124e-05
1.57064e-05
1.53618e-05
1.45064e-05
1.41624e-05
1.41192e-05
1.41541e-05
1.43161e-05
1.48122e-05
1.53805e-05
1.60968e-05
1.72718e-05
1.96215e-05
2.47361e-05
2.01355e-05
2.00858e-05
1.99914e-05
1.97867e-05
1.96379e-05
1.96104e-05
1.96222e-05
1.96005e-05
1.9367e-05
1.82294e-05
1.75166e-05
1.75534e-05
1.7967e-05
1.826e-05
1.83005e-05
1.81361e-05
1.68805e-05
1.59853e-05
2.03733e-05
2.39706e-05
2.45499e-05
2.42699e-05
2.43935e-05
2.3307e-05
2.20613e-05
2.17689e-05
2.18438e-05
2.26002e-05
2.6471e-05
3.45682e-05
3.92309e-05
4.07019e-05
4.05685e-05
3.80824e-05
3.28418e-05
2.87402e-05
2.08669e-05
2.20117e-05
2.21318e-05
2.26358e-05
2.26841e-05
2.2365e-05
2.17472e-05
2.11643e-05
2.10047e-05
2.10753e-05
2.16832e-05
2.39622e-05
2.57702e-05
2.63519e-05
2.63924e-05
2.62119e-05
2.56659e-05
2.50177e-05
2.10653e-05
2.13347e-05
2.09146e-05
2.06423e-05
2.08425e-05
2.14588e-05
2.16619e-05
2.16209e-05
2.12184e-05
2.07002e-05
2.05398e-05
2.05434e-05
2.06088e-05
2.08079e-05
2.14275e-05
2.28464e-05
2.40768e-05
2.48104e-05
2.48069e-05
2.28861e-05
2.09676e-05
2.08473e-05
2.19435e-05
2.72936e-05
3.11517e-05
3.16493e-05
3.05632e-05
2.66916e-05
2.40352e-05
2.28212e-05
2.24046e-05
2.23451e-05
2.24112e-05
2.27361e-05
2.29958e-05
2.3158e-05
3.07075e-05
2.34156e-05
2.12769e-05
2.05334e-05
2.05084e-05
2.09138e-05
2.31201e-05
2.59376e-05
2.6371e-05
2.60691e-05
2.60668e-05
2.65893e-05
2.78747e-05
2.85895e-05
2.85793e-05
2.77474e-05
2.53218e-05
2.35175e-05
3.18031e-05
2.94514e-05
2.47361e-05
2.12652e-05
2.04613e-05
2.05369e-05
2.17065e-05
2.41567e-05
2.62565e-05
2.72667e-05
2.72831e-05
2.69563e-05
2.55948e-05
2.39335e-05
2.27599e-05
2.18676e-05
2.12307e-05
2.08007e-05
3.20625e-05
3.09316e-05
2.28477e-05
2.05656e-05
2.02693e-05
2.03968e-05
2.11541e-05
2.24021e-05
2.31331e-05
2.34636e-05
2.35435e-05
2.34485e-05
2.27926e-05
2.19531e-05
2.1437e-05
2.11325e-05
2.0982e-05
2.09032e-05
2.26987e-05
2.14517e-05
2.1683e-05
2.19399e-05
2.21436e-05
2.26685e-05
2.32258e-05
2.34171e-05
2.35991e-05
2.37057e-05
2.38997e-05
2.411e-05
2.40247e-05
2.32661e-05
2.23939e-05
2.19145e-05
2.17433e-05
2.16438e-05
2.03172e-05
2.14039e-05
2.74111e-05
2.97035e-05
2.75138e-05
2.47083e-05
2.30025e-05
2.24734e-05
2.25024e-05
2.30083e-05
2.4886e-05
2.67097e-05
2.72823e-05
2.73293e-05
2.7267e-05
2.67597e-05
2.55927e-05
2.49915e-05
2.01226e-05
2.38467e-05
3.43643e-05
3.40336e-05
2.8063e-05
2.39717e-05
2.17953e-05
2.10977e-05
2.10513e-05
2.13249e-05
2.29392e-05
2.82187e-05
3.10196e-05
3.12136e-05
3.07142e-05
2.8526e-05
2.62894e-05
2.50476e-05
2.00404e-05
2.17033e-05
3.33224e-05
5.9405e-05
6.45084e-05
5.37412e-05
3.19118e-05
2.36892e-05
2.12549e-05
2.06974e-05
2.06988e-05
2.11623e-05
2.28414e-05
2.39371e-05
2.44024e-05
2.45519e-05
2.45724e-05
2.45354e-05
2.09706e-05
2.20261e-05
2.60211e-05
2.93002e-05
2.85637e-05
2.50066e-05
2.30274e-05
2.17303e-05
2.09868e-05
2.06895e-05
2.06299e-05
2.06624e-05
2.08878e-05
2.16055e-05
2.35388e-05
2.57829e-05
2.74572e-05
2.82353e-05
2.22435e-05
2.16835e-05
2.09108e-05
2.09791e-05
2.2983e-05
2.65356e-05
2.74848e-05
2.70314e-05
2.48087e-05
2.28734e-05
2.20338e-05
2.18343e-05
2.18288e-05
2.18164e-05
2.18185e-05
2.20208e-05
2.27471e-05
2.32498e-05
2.05211e-05
2.06564e-05
2.05078e-05
2.04634e-05
2.07577e-05
2.1846e-05
2.34522e-05
2.41775e-05
2.43236e-05
2.4433e-05
2.45198e-05
2.45288e-05
2.44578e-05
2.44672e-05
2.45467e-05
2.45132e-05
2.43579e-05
2.43736e-05
2.05284e-05
2.15093e-05
2.13717e-05
2.10477e-05
2.13342e-05
2.26491e-05
2.28419e-05
2.28098e-05
2.28918e-05
2.31887e-05
2.39902e-05
2.67784e-05
3.07415e-05
3.24746e-05
3.25254e-05
3.12934e-05
2.73489e-05
2.44848e-05
2.0299e-05
2.04216e-05
2.06168e-05
2.06361e-05
2.06914e-05
2.09798e-05
2.09716e-05
2.08405e-05
2.08498e-05
2.11152e-05
2.19906e-05
2.26767e-05
2.37886e-05
2.54024e-05
2.65831e-05
2.67726e-05
2.63033e-05
2.56728e-05
2.00111e-05
2.00394e-05
2.0158e-05
2.0479e-05
2.16069e-05
2.17935e-05
2.11711e-05
2.09279e-05
2.10485e-05
2.19893e-05
2.37214e-05
2.47065e-05
2.5067e-05
2.51181e-05
2.50586e-05
2.45641e-05
2.37641e-05
2.33841e-05
2.18655e-05
2.1291e-05
2.09875e-05
2.2289e-05
2.84471e-05
3.09903e-05
2.91936e-05
2.40138e-05
2.19205e-05
2.13001e-05
2.11683e-05
2.11617e-05
2.12039e-05
2.13803e-05
2.1589e-05
2.17442e-05
2.18279e-05
2.1876e-05
2.16488e-05
2.08392e-05
2.14434e-05
2.41625e-05
3.10574e-05
3.48634e-05
3.45098e-05
2.89597e-05
2.4184e-05
2.24557e-05
2.19634e-05
2.19059e-05
2.20028e-05
2.22377e-05
2.23511e-05
2.23809e-05
2.23782e-05
2.23401e-05
2.03656e-05
2.11347e-05
2.22523e-05
2.50855e-05
3.20982e-05
3.54526e-05
3.44809e-05
2.7931e-05
2.36181e-05
2.23413e-05
2.21433e-05
2.22707e-05
2.27192e-05
2.28978e-05
2.29107e-05
2.28091e-05
2.2342e-05
2.18324e-05
2.20901e-05
2.16876e-05
2.28595e-05
2.70012e-05
2.7384e-05
2.48137e-05
2.1895e-05
2.08761e-05
2.06893e-05
2.07195e-05
2.10556e-05
2.2533e-05
2.77498e-05
3.28069e-05
3.428e-05
3.38937e-05
3.0849e-05
2.69579e-05
2.11374e-05
2.09869e-05
2.05967e-05
2.16185e-05
2.44897e-05
2.51461e-05
2.46154e-05
2.30559e-05
2.25917e-05
2.26404e-05
2.3105e-05
2.44861e-05
3.05178e-05
3.99967e-05
4.33225e-05
4.30426e-05
3.95507e-05
3.33273e-05
2.06005e-05
2.05153e-05
2.00344e-05
1.99837e-05
2.0108e-05
2.06083e-05
2.10036e-05
2.1096e-05
2.10599e-05
2.07818e-05
1.99119e-05
1.93129e-05
1.90911e-05
1.89888e-05
1.88563e-05
1.87469e-05
1.86925e-05
1.86988e-05
2.00424e-05
1.78963e-05
1.31888e-05
1.27812e-05
1.30766e-05
1.35065e-05
1.40982e-05
1.46731e-05
1.4986e-05
1.5037e-05
1.49341e-05
1.44562e-05
1.40678e-05
1.38659e-05
1.37201e-05
1.36211e-05
1.3608e-05
1.36249e-05
2.12145e-05
3.04809e-05
4.10636e-05
4.12935e-05
3.49717e-05
2.65531e-05
2.28446e-05
2.12611e-05
2.04548e-05
2.00011e-05
1.97313e-05
1.95901e-05
1.95591e-05
1.95492e-05
1.95785e-05
1.97846e-05
2.03594e-05
2.18832e-05
9.16667e-05
0.000588456
0.000695705
0.000519412
0.000223642
9.40751e-05
4.57514e-05
2.83759e-05
2.17517e-05
1.899e-05
1.785e-05
1.74868e-05
1.7457e-05
1.76241e-05
1.85159e-05
2.20072e-05
3.02209e-05
3.66744e-05
0.065067
0.100863
0.109722
0.118502
0.122025
0.121412
0.119842
0.117466
0.116619
0.117061
0.11916
0.120752
0.127726
0.136785
0.145425
0.15481
0.169285
0.19925
0.229519
0.232104
0.191478
0.110778
0.0955056
0.101617
0.104049
0.0992293
0.0946723
0.0934739
0.0929789
0.092824
0.0927181
0.0925961
0.0924478
0.0916668
0.0898646
0.0874396
0.0848928
0.0823692
0.0799444
0.0776882
0.075594
0.073493
0.071509
0.0695692
0.0677756
0.0663161
0.0653546
0.0646017
0.0636678
0.0626715
0.0620416
0.0616819
0.0613465
0.0610152
0.0609387
0.0609933
0.0607305
0.0605202
0.0607778
0.0621734
0.0637653
0.0653156
0.0671277
0.0680396
0.0686151
0.0692124
0.0698524
0.0711877
0.0736783
0.0766222
0.0794746
0.0823212
0.0854538
0.0885172
0.0908934
0.0941889
0.0982459
0.100759
0.102012
0.102279
0.100947
0.0981314
0.100775
0.11432
0.124747
0.155237
0.251986
0.324636
0.336436
0.313458
0.298166
0.317726
0.50725
0.81211
1.08066
1.12767
0.972864
0.312332
0.153026
0.114065
0.0969665
0.0848658
0.0729109
0.0671098
0.0603064
0.0564722
0.0536409
0.0509438
0.0496355
0.0486891
0.0483787
0.0485536
0.0486265
0.048661
0.0485998
0.0484903
0.0483416
0.0481088
0.0477692
0.0474177
0.0469084
0.0463493
0.045734
0.0449795
0.0441713
0.0432969
0.0423028
0.0412161
0.0401089
0.0389346
0.0378865
0.0369826
0.0363214
0.035848
0.0353672
0.0350174
0.0347065
0.0344884
0.0343285
0.0342223
0.0343205
0.0347454
0.0355034
0.0359076
0.0359574
0.0358861
0.0355682
0.0351584
0.0347679
0.0344728
0.0343518
0.0344143
0.0347364
0.0354064
0.0360435
0.0371745
0.0393973
0.042236
0.044839
0.0472132
0.0503481
0.0544412
0.0588135
0.0624865
0.0647119
0.0654908
0.0655213
0.0648977
0.0627747
0.0602044
0.0588484
0.0579013
0.0568534
0.0568633
0.0583524
0.0585497
0.048228
0.0282839
0.0276915
0.026251
0.0752376
0.0934093
0.134384
0.143042
0.144945
0.145193
0.144271
0.140766
0.133686
0.129002
0.125422
0.123373
0.123871
0.125374
0.129881
0.138331
0.15327
0.189539
0.202541
0.171375
0.106276
0.0879967
0.0845168
0.083869
0.081036
0.0752697
0.0704299
0.0674934
0.0656502
0.064013
0.061981
0.0599693
0.0579654
0.0564561
0.0556456
0.0542332
0.052195
0.0504739
0.0490755
0.0474024
0.0454407
0.0430667
0.0399203
0.0372384
0.0361491
0.0358593
0.0358215
0.0359288
0.0363682
0.0372391
0.0384744
0.0398322
0.0410978
0.041634
0.0415513
0.0415681
0.0414797
0.0413548
0.0415736
0.0423897
0.043602
0.0444426
0.0464708
0.0482314
0.0509613
0.0549722
0.0607239
0.0696283
0.0811531
0.0927347
0.103549
0.114657
0.1253
0.133266
0.139085
0.145819
0.152078
0.155683
0.157116
0.157375
0.156773
0.153659
0.139758
0.123697
0.121289
0.12589
0.148412
0.22446
0.249379
0.221109
0.190146
0.205161
0.30076
0.399906
1.00002
1.1203
0.510722
0.17457
0.10005
0.0791487
0.0705269
0.0663821
0.0644304
0.0636101
0.0631537
0.0629028
0.0626853
0.0623831
0.0621686
0.0617519
0.0614592
0.06101
0.0606165
0.0603758
0.0600925
0.059929
0.0598477
0.0597966
0.0597908
0.05984
0.05996
0.0601065
0.0602612
0.0604273
0.0605559
0.0606482
0.060698
0.0606643
0.0606129
0.0603146
0.059663
0.0585616
0.0569985
0.0553025
0.0533517
0.0513999
0.0492678
0.0468834
0.0442066
0.041607
0.0394036
0.0377704
0.0364048
0.0352968
0.0343925
0.0336214
0.0329514
0.0323747
0.0318729
0.0314321
0.031001
0.0305642
0.0300404
0.0294181
0.0287766
0.0279316
0.026534
0.0249664
0.0242341
0.0242781
0.0248841
0.0265399
0.0286155
0.0327468
0.0389268
0.0450753
0.0495885
0.0516273
0.0518346
0.0511744
0.0467193
0.0384497
0.0328646
0.0285081
0.0278404
0.0309267
0.0359342
0.0355969
0.0360951
0.0388822
0.0672328
0.163524
0.156693
0.13492
0.114852
0.113429
0.115689
0.120873
0.128298
0.132552
0.132469
0.131495
0.129358
0.128307
0.129106
0.132665
0.138661
0.153685
0.176851
0.171159
0.111319
0.0873509
0.0835978
0.0832781
0.08306
0.0817372
0.0792944
0.0736359
0.0655544
0.0609782
0.0581404
0.0527885
0.0458281
0.0419662
0.0401477
0.0385198
0.0366892
0.0355395
0.034655
0.0336541
0.0327375
0.0315751
0.0312722
0.0313473
0.0319447
0.0327886
0.0334786
0.0340977
0.0350076
0.0365814
0.0389771
0.042007
0.0459791
0.0500535
0.0517701
0.0521002
0.0508448
0.0490728
0.0472394
0.0470755
0.0471092
0.047778
0.0493424
0.0519843
0.0550062
0.0611958
0.0746237
0.09158
0.108225
0.122953
0.134491
0.143726
0.150516
0.154627
0.156934
0.159528
0.161473
0.162595
0.163363
0.164409
0.164736
0.165991
0.164068
0.14824
0.128042
0.12254
0.124062
0.135714
0.167711
0.17048
0.164122
0.168707
0.196284
0.492939
1.15722
0.636501
0.193294
0.0941983
0.0711832
0.0637103
0.0603857
0.0585326
0.0573951
0.0566604
0.0555393
0.0545154
0.0535749
0.0523414
0.0514101
0.0503773
0.0495806
0.0488578
0.0482982
0.0479337
0.04774
0.0476436
0.0476128
0.0477731
0.0479716
0.0483801
0.0491158
0.0500495
0.0511879
0.052585
0.0541184
0.055839
0.0575536
0.0592186
0.0608681
0.0625519
0.0643315
0.0660765
0.0675741
0.0687651
0.069773
0.0705345
0.0709921
0.0711063
0.0708331
0.0695199
0.0669219
0.0632622
0.0590186
0.0544764
0.0502178
0.0467376
0.0442315
0.0424689
0.0411536
0.0401604
0.0392905
0.0382232
0.0366905
0.0347328
0.0329132
0.0317956
0.0312765
0.0306675
0.0286266
0.0248719
0.0219105
0.0189669
0.0167635
0.0161982
0.0163207
0.0167883
0.0179128
0.0204723
0.0224418
0.0227853
0.0217871
0.0180103
0.0146191
0.0121508
0.0111061
0.0113129
0.0127342
0.0178492
0.0202777
0.025423
0.131529
0.15584
0.110254
0.0725332
0.0750208
0.0827757
0.0928945
0.101172
0.101612
0.103161
0.106586
0.111787
0.115983
0.11971
0.124639
0.128607
0.13405
0.139996
0.14909
0.15967
0.149373
0.108923
0.0915103
0.0902135
0.0924697
0.0929646
0.0869073
0.0709103
0.0639789
0.0607032
0.0575162
0.0528612
0.0485785
0.0466908
0.0452441
0.0433814
0.0416205
0.0391729
0.0362965
0.0336655
0.0323523
0.0317742
0.0313265
0.0306278
0.0295214
0.0279982
0.026671
0.026212
0.0262113
0.0279783
0.0322304
0.0376255
0.0434632
0.0495519
0.0542962
0.0566987
0.0575912
0.0573801
0.0534421
0.0485338
0.0468482
0.0465311
0.0470738
0.0483828
0.0515226
0.0591048
0.0725896
0.0878036
0.102895
0.115822
0.124175
0.12796
0.127894
0.126797
0.124813
0.122857
0.120455
0.119251
0.120446
0.128616
0.139811
0.15323
0.176367
0.18943
0.18789
0.175785
0.143241
0.138637
0.142213
0.144514
0.144371
0.150658
0.214198
0.76899
0.977786
0.269274
0.101543
0.0694117
0.0616857
0.0590197
0.0578473
0.0570383
0.0561599
0.0553736
0.0543174
0.0529596
0.0515266
0.0498467
0.048
0.0459126
0.0438052
0.0419327
0.0402237
0.038595
0.037349
0.0364928
0.0361302
0.0360363
0.0360753
0.03637
0.036828
0.0372931
0.0378253
0.0383754
0.0390712
0.0399802
0.0412391
0.0426731
0.0441587
0.0457514
0.0474084
0.0492429
0.0514719
0.0540641
0.0571134
0.0606215
0.0644433
0.068376
0.0720993
0.0752308
0.0772893
0.0787381
0.0796812
0.0801476
0.079833
0.07817
0.075849
0.0736135
0.0719537
0.0709303
0.0701661
0.0685858
0.0648771
0.057294
0.0468142
0.0379882
0.0332553
0.0324044
0.0335184
0.0343579
0.0339608
0.0310312
0.0243135
0.0202593
0.0184354
0.0180726
0.0182465
0.0190422
0.019861
0.0200036
0.0196872
0.0181558
0.0168995
0.0164102
0.0162555
0.0161843
0.0161645
0.0166864
0.0168933
0.0174576
0.107916
0.0839892
0.0510164
0.056661
0.0786287
0.107727
0.124227
0.133161
0.13435
0.131817
0.124343
0.11631
0.113695
0.113539
0.114344
0.117037
0.123307
0.13184
0.139816
0.145221
0.150856
0.144268
0.131728
0.121861
0.117106
0.110538
0.0920623
0.0708324
0.0615186
0.057431
0.0546702
0.0516637
0.0476495
0.0449156
0.0419116
0.0377061
0.0331247
0.0278229
0.0244238
0.0225765
0.0203308
0.0182988
0.0162266
0.0141979
0.0123535
0.0108988
0.0101434
0.00977687
0.00963774
0.00996197
0.0118706
0.0152466
0.0205795
0.0274977
0.0363741
0.0465319
0.0532235
0.0559409
0.0563433
0.052676
0.0490735
0.0460945
0.0446986
0.0449209
0.0466883
0.0512146
0.057633
0.0643184
0.069976
0.0713632
0.0699841
0.0673488
0.065245
0.0647364
0.0651658
0.0660138
0.0672928
0.0702483
0.0777089
0.102115
0.134811
0.145845
0.151812
0.168993
0.190155
0.193976
0.189362
0.16593
0.148198
0.144613
0.145967
0.167643
0.341715
0.853998
0.539119
0.139427
0.0740415
0.0622643
0.0594235
0.0584722
0.0579009
0.0572643
0.0563904
0.0550443
0.0532711
0.0513896
0.0485827
0.0451125
0.0417017
0.0382772
0.0353392
0.0335277
0.0323858
0.0319321
0.0318327
0.0318528
0.0320421
0.0323801
0.0328158
0.0333484
0.0339005
0.0343813
0.0347412
0.0349403
0.0350179
0.0348895
0.0350829
0.0356585
0.0368576
0.0386225
0.040529
0.0420253
0.0434375
0.0447807
0.045853
0.0467731
0.0477538
0.0490563
0.0512551
0.0549595
0.0605624
0.0671872
0.0741826
0.0804601
0.0850571
0.088436
0.0912315
0.093724
0.0962659
0.0989403
0.101353
0.102971
0.103321
0.10185
0.0947797
0.0749754
0.0507738
0.0348982
0.029299
0.0291357
0.0318147
0.0345251
0.0347094
0.033514
0.0281085
0.0229678
0.0207001
0.0202104
0.0202226
0.0201733
0.0199223
0.0195426
0.0188352
0.016819
0.0139021
0.0121989
0.0117639
0.0116251
0.0116286
0.0126172
0.072287
0.0664681
0.0400688
0.0655082
0.106105
0.124348
0.135318
0.141913
0.146107
0.146471
0.145037
0.13957
0.12715
0.118227
0.114788
0.114714
0.115775
0.119456
0.127434
0.135185
0.1393
0.143215
0.142651
0.144543
0.143041
0.128844
0.097979
0.0697105
0.058629
0.0536351
0.050321
0.0463241
0.040033
0.0316415
0.0234706
0.0184258
0.0141424
0.0122645
0.0110592
0.0100668
0.00952881
0.00906614
0.00877283
0.00847451
0.00818577
0.0079249
0.00764182
0.00730409
0.00674522
0.00604015
0.00553039
0.0051951
0.00523012
0.00603443
0.0082936
0.0129486
0.021894
0.0335199
0.0444763
0.0507416
0.0520251
0.0506092
0.0484382
0.0473226
0.0472577
0.0480707
0.0490567
0.0495152
0.0495297
0.0492742
0.0487204
0.0483525
0.0483066
0.0487415
0.0499225
0.0510764
0.0525546
0.0556165
0.063773
0.0881347
0.134744
0.165129
0.170023
0.170634
0.179298
0.19535
0.198522
0.193837
0.167626
0.151632
0.156985
0.223699
0.539407
0.815104
0.280819
0.091939
0.0649054
0.0602947
0.0592647
0.0588453
0.0586876
0.0584251
0.0563714
0.0533803
0.0504497
0.0461579
0.0395238
0.0339302
0.0316285
0.0305774
0.0301796
0.0300898
0.0301165
0.0303219
0.0306475
0.0310989
0.0316737
0.0322384
0.0327754
0.0333608
0.0339482
0.0344702
0.034879
0.0350587
0.0350427
0.034405
0.0336829
0.0328524
0.0321526
0.0316451
0.0320189
0.0340913
0.0374386
0.0409156
0.043338
0.0450482
0.0461956
0.0470167
0.0475044
0.0478139
0.0481827
0.0491232
0.0509179
0.0547952
0.061972
0.0712544
0.0809433
0.0891807
0.0951865
0.100046
0.104197
0.107524
0.109802
0.110853
0.110849
0.108897
0.0990184
0.0676543
0.0398417
0.0282308
0.026497
0.0278523
0.0324363
0.0346091
0.0345973
0.0330796
0.0273969
0.0232449
0.0214486
0.0206531
0.0202624
0.0198299
0.018749
0.0153218
0.0109609
0.00819248
0.00690167
0.00648123
0.0064166
0.00709783
0.066254
0.0631939
0.0331461
0.0836959
0.112267
0.126975
0.137272
0.144168
0.148378
0.151389
0.151439
0.150384
0.146713
0.137668
0.123933
0.117281
0.115971
0.116293
0.118223
0.123716
0.128918
0.132178
0.137138
0.14525
0.151049
0.137674
0.100428
0.0671802
0.0536458
0.0468679
0.0390191
0.0289345
0.0201898
0.014256
0.0115432
0.0102431
0.00965181
0.00944801
0.00939746
0.00947243
0.00975278
0.0100295
0.0105835
0.0110773
0.0114273
0.011576
0.011494
0.0108312
0.00940278
0.00761164
0.00605221
0.00473694
0.0038926
0.00322981
0.00296265
0.00294924
0.00377092
0.00592001
0.010625
0.0199938
0.0312329
0.0404584
0.0456313
0.0471067
0.0477663
0.0481025
0.0481601
0.0480279
0.0476343
0.0470045
0.0463711
0.0459118
0.0457926
0.0458742
0.0462637
0.0468088
0.0476054
0.0491808
0.0529357
0.0642452
0.108743
0.166564
0.19176
0.193585
0.192658
0.197077
0.203287
0.201756
0.181088
0.167188
0.185005
0.353211
0.624793
0.643639
0.161955
0.0734014
0.0619005
0.0600887
0.059701
0.0602
0.0603434
0.0586641
0.0544469
0.0486742
0.0420723
0.0352652
0.0320206
0.0304362
0.0297854
0.0295972
0.0295796
0.0297172
0.0300746
0.0307038
0.0318433
0.0332744
0.0347566
0.03609
0.0369097
0.0375201
0.0379197
0.0381742
0.0388623
0.0398095
0.0402507
0.040196
0.0388907
0.0365651
0.0339507
0.0314175
0.029223
0.0275334
0.0265305
0.0273466
0.0320097
0.0382402
0.0432835
0.0465336
0.0486215
0.0499581
0.0507125
0.0507393
0.0501678
0.0494388
0.0493923
0.0501994
0.0530914
0.0598802
0.0695495
0.0804429
0.0910059
0.0996127
0.106073
0.110181
0.111815
0.11192
0.11077
0.10428
0.0768866
0.0436062
0.0277588
0.0237756
0.0245612
0.0295918
0.0335372
0.0343502
0.0339143
0.0309082
0.0249661
0.0221432
0.0211042
0.019993
0.0175649
0.0142053
0.010798
0.00790294
0.00596027
0.00514311
0.0049876
0.00507848
0.0640684
0.0616437
0.0289451
0.0917159
0.112874
0.125629
0.136787
0.144352
0.149009
0.152474
0.154254
0.15409
0.152748
0.149044
0.141483
0.128324
0.118727
0.116739
0.116947
0.118351
0.12277
0.125555
0.129521
0.139604
0.151584
0.139072
0.0997419
0.0606734
0.0420645
0.0323233
0.0215266
0.0151736
0.0121723
0.0109324
0.0105719
0.0105187
0.0110109
0.0123013
0.0138287
0.0157053
0.0176256
0.0193473
0.0203987
0.0210475
0.0213027
0.0211744
0.020609
0.0193417
0.0170914
0.0140738
0.0106218
0.00785275
0.00538119
0.00369145
0.00278984
0.00216637
0.00182549
0.00162892
0.0017712
0.00253537
0.00436075
0.00800433
0.0145601
0.0234997
0.031922
0.0387476
0.0431156
0.0457302
0.0471664
0.0476983
0.0477211
0.0473971
0.0467693
0.0462992
0.0461729
0.0463288
0.0467564
0.0475937
0.0494637
0.0552018
0.0775999
0.148865
0.197578
0.209772
0.20842
0.20696
0.207602
0.20547
0.18595
0.183258
0.244571
0.482985
0.627775
0.389388
0.107664
0.0661069
0.0609951
0.0603364
0.0608914
0.0618956
0.0614369
0.0572557
0.0490547
0.0392592
0.0341938
0.0316973
0.0303321
0.0296974
0.0295252
0.0295515
0.0298192
0.030313
0.0315788
0.0341653
0.0377598
0.0418477
0.0459436
0.049423
0.0510206
0.0516093
0.0513709
0.0494717
0.0481498
0.047523
0.0483687
0.0498552
0.0506928
0.0492967
0.0461437
0.0414953
0.0359167
0.0304134
0.0259232
0.0226916
0.0207554
0.0208212
0.025444
0.0338831
0.0413925
0.0468005
0.0508572
0.0537992
0.0557529
0.0566392
0.0560459
0.0533832
0.05135
0.0509008
0.0515524
0.0547839
0.0629616
0.0758926
0.0902201
0.101847
0.108379
0.110718
0.110874
0.109231
0.100802
0.0714804
0.0412226
0.0257583
0.0212204
0.021613
0.0262658
0.0319644
0.0336306
0.0335774
0.0318809
0.0262843
0.0228945
0.020563
0.0177918
0.0144775
0.0111996
0.00876065
0.00750852
0.00704799
0.00686547
0.00655802
0.0621577
0.0598402
0.0277505
0.0944943
0.105691
0.117117
0.130013
0.139837
0.146386
0.150221
0.1523
0.152987
0.152358
0.149805
0.144166
0.135789
0.125483
0.11864
0.117424
0.118178
0.121015
0.123793
0.125239
0.128597
0.149621
0.137533
0.0935092
0.0469468
0.0281281
0.0192247
0.0140756
0.0121105
0.0115699
0.0114784
0.012541
0.0150662
0.0192839
0.0246504
0.0284037
0.0312845
0.0334555
0.0345091
0.03497
0.0350777
0.034642
0.0334009
0.0321871
0.0295819
0.026591
0.0223479
0.0174821
0.012871
0.00869942
0.00611947
0.00397337
0.00264448
0.00186686
0.00142486
0.00112136
0.000928501
0.000886366
0.00103236
0.00153026
0.00271784
0.00518683
0.00966216
0.0169985
0.025598
0.0339101
0.0406267
0.0450939
0.0478119
0.0489774
0.0492427
0.0490847
0.0485698
0.0481989
0.0482035
0.0491081
0.0531895
0.0691101
0.131288
0.196754
0.219788
0.221297
0.218053
0.214702
0.206893
0.190905
0.202825
0.341423
0.54123
0.591481
0.231085
0.0828363
0.0631791
0.061039
0.0609557
0.0627462
0.063229
0.0612478
0.0537105
0.0417343
0.034386
0.0318685
0.03071
0.0299058
0.0296216
0.0296224
0.0300399
0.0309154
0.0326644
0.0368116
0.0436092
0.0523991
0.0608923
0.0666917
0.0687406
0.0697006
0.0705929
0.0715747
0.0717346
0.0692293
0.0649595
0.0604543
0.0578984
0.0587208
0.0594628
0.0590549
0.0573793
0.0532485
0.0463245
0.037017
0.0278608
0.0209166
0.0169402
0.0149139
0.0149515
0.0186049
0.0270624
0.0366305
0.0456321
0.0527814
0.0579453
0.0613
0.0629896
0.06297
0.0599371
0.0562512
0.0553909
0.056696
0.064607
0.082001
0.0943913
0.102262
0.10638
0.107667
0.1074
0.103616
0.0870364
0.0574624
0.0342363
0.0218338
0.0181083
0.0184908
0.0227329
0.0300669
0.0327081
0.0327537
0.0316302
0.0272151
0.0224354
0.0186112
0.0152061
0.0129738
0.012275
0.0123641
0.012579
0.0123022
0.0104481
0.0596905
0.0589156
0.0306006
0.0934708
0.102253
0.111255
0.122593
0.132622
0.140497
0.145096
0.147714
0.149203
0.1499
0.148184
0.143194
0.135734
0.128279
0.12238
0.119567
0.119499
0.121087
0.122332
0.118826
0.1221
0.141897
0.130934
0.0799544
0.0326166
0.0192859
0.0143868
0.0127147
0.0123508
0.0128891
0.0156395
0.021844
0.0324951
0.038283
0.0430061
0.0452942
0.0475904
0.0487641
0.0495556
0.0498937
0.0496324
0.048698
0.0479305
0.0457307
0.0432624
0.0397911
0.0353269
0.0288673
0.0204089
0.0138188
0.00951878
0.00626954
0.00398981
0.00248137
0.00161448
0.0011378
0.000850123
0.000662361
0.000554958
0.000491585
0.000489681
0.000597735
0.000953078
0.00181024
0.00370817
0.00737774
0.014485
0.0253992
0.0371833
0.0452279
0.0490295
0.0500993
0.050244
0.0499904
0.0497896
0.050202
0.0531168
0.0666988
0.123465
0.195947
0.2266
0.23107
0.22896
0.223011
0.20581
0.197244
0.23278
0.424773
0.549845
0.450382
0.14879
0.0717999
0.0621371
0.0612406
0.0622583
0.0643739
0.0644874
0.0612672
0.0522018
0.0392352
0.0330669
0.0312719
0.0304276
0.0298861
0.0297673
0.0302428
0.0315798
0.0336773
0.0380295
0.0471575
0.0609974
0.0721531
0.0747607
0.07454
0.0736432
0.0736106
0.0743008
0.0763532
0.0791227
0.0812562
0.0823297
0.0817011
0.0784466
0.0739185
0.0700071
0.0668424
0.0649381
0.0638272
0.0621087
0.0575571
0.0467337
0.0318045
0.0207585
0.0144884
0.0111905
0.0095527
0.00959045
0.0122031
0.0207245
0.0334201
0.0458404
0.0556012
0.0625799
0.0666453
0.0682425
0.0683968
0.0679894
0.0684565
0.0714877
0.082781
0.0929557
0.0980791
0.100696
0.101825
0.101865
0.0998549
0.0891464
0.0663042
0.0439676
0.0266183
0.0173807
0.014869
0.0153854
0.0195088
0.0281147
0.031439
0.0314914
0.0305721
0.0265789
0.0207581
0.0176195
0.0165435
0.0164463
0.0169327
0.0173359
0.0171193
0.0150786
0.0548529
0.0575706
0.0327328
0.0883229
0.0944205
0.102043
0.112951
0.123683
0.134045
0.14044
0.143316
0.144647
0.144315
0.143857
0.140572
0.134594
0.128162
0.123676
0.12145
0.120813
0.120882
0.118271
0.111269
0.119219
0.130543
0.11851
0.053076
0.0232298
0.0156092
0.0135606
0.0130983
0.0140892
0.0182124
0.0280138
0.0404178
0.0463848
0.0514064
0.0539815
0.0559855
0.0573712
0.0582418
0.058839
0.0591047
0.0591064
0.0586718
0.0570226
0.0545157
0.0511408
0.0479356
0.0447163
0.0414193
0.0356492
0.0252638
0.0158921
0.0105701
0.0066103
0.00390852
0.0022271
0.00131436
0.000862779
0.000626225
0.000488437
0.00040529
0.000338343
0.000291772
0.000276418
0.000302178
0.000437114
0.000832396
0.00185424
0.004551
0.0128068
0.0299569
0.0424518
0.0476793
0.0486065
0.0491881
0.0496709
0.0503468
0.0532318
0.0662791
0.120684
0.195319
0.231692
0.238878
0.237323
0.229337
0.205303
0.203797
0.274019
0.473651
0.537099
0.29598
0.107433
0.0668354
0.0620466
0.0616776
0.0639666
0.0658261
0.0656678
0.0617614
0.0525537
0.0396562
0.0330968
0.0312345
0.030424
0.0300665
0.0302574
0.0317664
0.0343274
0.0378353
0.0458768
0.0618993
0.0760307
0.0788753
0.0786869
0.0753938
0.0735491
0.0729575
0.0730518
0.0749322
0.0784058
0.0818195
0.0844439
0.0862782
0.0873721
0.0875488
0.086496
0.0837223
0.0784973
0.0730197
0.0697127
0.0676381
0.0630793
0.0507058
0.0336267
0.0206539
0.0128028
0.00864055
0.00644237
0.0055938
0.0060328
0.00904596
0.0186548
0.0336387
0.0484594
0.0597891
0.0664554
0.0699666
0.0723441
0.0773572
0.0843696
0.0905788
0.0937982
0.0937701
0.093199
0.0927014
0.0918652
0.0895684
0.0812315
0.0652341
0.0485716
0.0322301
0.0197473
0.0132748
0.0118672
0.0125606
0.0168838
0.0262207
0.0298784
0.0300493
0.0292693
0.0255476
0.0212896
0.0195105
0.0191361
0.0193641
0.0196877
0.019618
0.0184646
0.0489004
0.0558304
0.0390475
0.0835414
0.0865444
0.0929715
0.10268
0.112321
0.123611
0.133723
0.138159
0.13967
0.139875
0.138275
0.136716
0.132566
0.127454
0.123539
0.121448
0.120388
0.117936
0.108555
0.10462
0.114092
0.119529
0.0928292
0.0357114
0.0187382
0.0148156
0.0139492
0.0147485
0.0194505
0.0320193
0.0468957
0.0542296
0.0583815
0.0606164
0.0616015
0.0620224
0.0622282
0.0630002
0.064054
0.0645178
0.0646882
0.0639155
0.0621654
0.0592925
0.0557193
0.0517817
0.0479437
0.0450589
0.0421525
0.0368043
0.0269111
0.0177644
0.0113921
0.00681251
0.00378658
0.00199846
0.00106995
0.000648621
0.000460187
0.000370524
0.0003026
0.000250374
0.000212848
0.000192271
0.000189207
0.000214093
0.000333198
0.000769924
0.00237005
0.00923331
0.0284928
0.0403834
0.0444971
0.0463644
0.0480163
0.0494987
0.0530985
0.0663963
0.120352
0.194477
0.234366
0.244691
0.243848
0.233755
0.20654
0.210907
0.314745
0.486951
0.463594
0.202894
0.087305
0.0646538
0.0621274
0.0624623
0.0654855
0.0669689
0.0667273
0.0630608
0.0542149
0.0419871
0.0338789
0.0314995
0.0307137
0.030535
0.0311615
0.033465
0.0370515
0.0420913
0.0533055
0.0731103
0.0809559
0.0818199
0.0800514
0.0744744
0.0699002
0.0672034
0.066008
0.0663682
0.0699885
0.0757938
0.0809569
0.0850619
0.0876001
0.0890701
0.0897722
0.0899011
0.0892382
0.0871961
0.0834152
0.0775085
0.0701072
0.059895
0.0462443
0.031682
0.0193762
0.0113212
0.00683127
0.00455655
0.00349568
0.00338372
0.00430064
0.00795592
0.0188592
0.0366067
0.0515207
0.0616689
0.0698025
0.0785159
0.0861927
0.088422
0.0881355
0.086684
0.0847143
0.0809075
0.0739883
0.0672568
0.0612864
0.0544317
0.0451368
0.0340575
0.0227149
0.0141261
0.00990597
0.00928946
0.0101856
0.014886
0.0244864
0.0283575
0.0287863
0.0281442
0.0249787
0.0217289
0.0206285
0.0205771
0.020591
0.0203919
0.0194822
0.0400601
0.0536306
0.0445939
0.0818395
0.0800228
0.0828159
0.0909409
0.100255
0.109731
0.121836
0.130916
0.134396
0.135278
0.133814
0.131208
0.128487
0.125272
0.121978
0.119515
0.11589
0.107165
0.101099
0.0994192
0.105405
0.107759
0.0615811
0.0265195
0.0170779
0.015185
0.0152626
0.0193379
0.0329266
0.0496744
0.0578822
0.0613309
0.0625443
0.0628132
0.0626648
0.0629504
0.0643999
0.0667042
0.0686409
0.0695913
0.0699071
0.0691608
0.0673663
0.0641148
0.0594091
0.0551337
0.0507632
0.0466164
0.043931
0.0403774
0.0326282
0.0227694
0.0147294
0.00881336
0.00495744
0.00270596
0.0014598
0.00079806
0.000473032
0.000342195
0.000282506
0.000233431
0.00019556
0.000171867
0.000158631
0.000155576
0.000166824
0.000238446
0.000585441
0.0022832
0.0112134
0.0286592
0.0381712
0.0426385
0.0454293
0.0476324
0.0521994
0.0668857
0.122286
0.194304
0.23515
0.248318
0.248416
0.237503
0.209291
0.217726
0.34018
0.481544
0.358165
0.150048
0.0768891
0.0640393
0.0624142
0.0631035
0.0661425
0.0677211
0.0676126
0.0649212
0.05807
0.0481493
0.0371453
0.032611
0.0314329
0.0311854
0.0317525
0.0343007
0.0388833
0.0449394
0.0573753
0.0769313
0.0829872
0.083472
0.0807923
0.0739607
0.0677443
0.063648
0.060886
0.0595386
0.0593506
0.0615743
0.0678906
0.0762893
0.0824568
0.0865797
0.0890151
0.0901375
0.0904145
0.0901362
0.0890851
0.0860892
0.077552
0.0647426
0.0513425
0.0383268
0.0265375
0.0165831
0.00953635
0.00541228
0.00329021
0.00227654
0.00196953
0.00220569
0.00358617
0.00833321
0.0223114
0.0418151
0.0596025
0.0718604
0.0771675
0.0787168
0.0791423
0.0791751
0.0778214
0.0700194
0.054517
0.0435157
0.0371887
0.0354314
0.0341621
0.0303552
0.0230121
0.0153851
0.00982373
0.00737934
0.00725805
0.00841394
0.0136802
0.0234028
0.02734
0.0277838
0.0269056
0.0236617
0.0218957
0.0212796
0.0205285
0.0198071
0.0190653
0.0315633
0.0501706
0.0534222
0.0812316
0.0752161
0.0753471
0.0804478
0.0878715
0.095654
0.10566