/*--------------------------------*- C++ -*----------------------------------*\
  =========                 |
  \\      /  F ield         | OpenFOAM: The Open Source CFD Toolbox
   \\    /   O peration     | Website:  https://openfoam.org
    \\  /    A nd           | Version:  6
     \\/     M anipulation  |
\*---------------------------------------------------------------------------*/
FoamFile
{
    version     2.0;
    format      ascii;
    class       volScalarField;
    location    "0.5";
    object      k_0;
}
// * * * * * * * * * * * * * * * * * * * * * * * * * * * * * * * * * * * * * //

dimensions      [0 2 -2 0 0 0 0];

internalField   nonuniform List<scalar> 
12225
(
0.000211093
0.00024723
0.000145423
5.189e-05
2.5461e-05
2.01261e-05
2.0096e-05
2.29336e-05
2.63048e-05
2.76147e-05
2.87383e-05
3.1307e-05
4.059e-05
7.8569e-05
0.000194765
0.000290009
0.000333861
0.000346415
2.54139e-05
3.05405e-05
2.83996e-05
2.28296e-05
2.05615e-05
2.00126e-05
2.00235e-05
2.04598e-05
2.19404e-05
2.32131e-05
2.39018e-05
2.45157e-05
2.56964e-05
2.8587e-05
3.71095e-05
4.79681e-05
7.33147e-05
0.00010088
2.00881e-05
1.27506e-05
1.32034e-05
1.49064e-05
1.56426e-05
1.57017e-05
1.52878e-05
1.44455e-05
1.41323e-05
1.40995e-05
1.41404e-05
1.43252e-05
1.48528e-05
1.5424e-05
1.61674e-05
1.74253e-05
1.99588e-05
2.55745e-05
2.01446e-05
2.00991e-05
2.00045e-05
1.98033e-05
1.96621e-05
1.9638e-05
1.96472e-05
1.96176e-05
1.93459e-05
1.81482e-05
1.75319e-05
1.76017e-05
1.80407e-05
1.82946e-05
1.83164e-05
1.80961e-05
1.66985e-05
1.59176e-05
2.04659e-05
2.41666e-05
2.45717e-05
2.42455e-05
2.43512e-05
2.3179e-05
2.20063e-05
2.17614e-05
2.18655e-05
2.27534e-05
2.72147e-05
3.52524e-05
3.96002e-05
4.08231e-05
4.05422e-05
3.75077e-05
3.23036e-05
2.83278e-05
2.09621e-05
2.20495e-05
2.21368e-05
2.26062e-05
2.26228e-05
2.23185e-05
2.16978e-05
2.11342e-05
2.09974e-05
2.10874e-05
2.17938e-05
2.41798e-05
2.58484e-05
2.63466e-05
2.63637e-05
2.61407e-05
2.55782e-05
2.49446e-05
2.11204e-05
2.13419e-05
2.08742e-05
2.06299e-05
2.08724e-05
2.1493e-05
2.16665e-05
2.1609e-05
2.1161e-05
2.06692e-05
2.05322e-05
2.05414e-05
2.06164e-05
2.08402e-05
2.15574e-05
2.3005e-05
2.41958e-05
2.48764e-05
2.49823e-05
2.26311e-05
2.09037e-05
2.0846e-05
2.21339e-05
2.77807e-05
3.13342e-05
3.16826e-05
3.03506e-05
2.63546e-05
2.38659e-05
2.27502e-05
2.23862e-05
2.23456e-05
2.24313e-05
2.27788e-05
2.30193e-05
2.31659e-05
2.79749e-05
2.28567e-05
2.11618e-05
2.05081e-05
2.05063e-05
2.09729e-05
2.33734e-05
2.60366e-05
2.63325e-05
2.60432e-05
2.60755e-05
2.67097e-05
2.79822e-05
2.85944e-05
2.85265e-05
2.74907e-05
2.50265e-05
2.3305e-05
3.05104e-05
2.85977e-05
2.43486e-05
2.11222e-05
2.04343e-05
2.05547e-05
2.18596e-05
2.43133e-05
2.63798e-05
2.72794e-05
2.72667e-05
2.6877e-05
2.5399e-05
2.37802e-05
2.26407e-05
2.17741e-05
2.11634e-05
2.07554e-05
3.20603e-05
3.01495e-05
2.23687e-05
2.04823e-05
2.02596e-05
2.04159e-05
2.12482e-05
2.24814e-05
2.31753e-05
2.34766e-05
2.35409e-05
2.34143e-05
2.26909e-05
2.18815e-05
2.13922e-05
2.1107e-05
2.09689e-05
2.08991e-05
2.2315e-05
2.13341e-05
2.17078e-05
2.19587e-05
2.21691e-05
2.27179e-05
2.32201e-05
2.34357e-05
2.36133e-05
2.37208e-05
2.39195e-05
2.41019e-05
2.39713e-05
2.31321e-05
2.23137e-05
2.18763e-05
2.17284e-05
2.16389e-05
2.01798e-05
2.15684e-05
2.78033e-05
2.94779e-05
2.72249e-05
2.44729e-05
2.28855e-05
2.24526e-05
2.25105e-05
2.31102e-05
2.51022e-05
2.6794e-05
2.72806e-05
2.73115e-05
2.72311e-05
2.66167e-05
2.54842e-05
2.49356e-05
2.015e-05
2.43931e-05
3.43494e-05
3.35657e-05
2.74974e-05
2.36536e-05
2.16435e-05
2.10686e-05
2.10493e-05
2.13804e-05
2.32724e-05
2.8651e-05
3.10662e-05
3.11609e-05
3.05472e-05
2.81971e-05
2.60831e-05
2.49307e-05
2.00494e-05
2.19334e-05
3.49769e-05
5.98856e-05
6.37018e-05
5.13896e-05
3.06547e-05
2.32727e-05
2.11351e-05
2.06746e-05
2.07024e-05
2.12624e-05
2.29822e-05
2.3992e-05
2.442e-05
2.45534e-05
2.45693e-05
2.45273e-05
2.09073e-05
2.19287e-05
2.61952e-05
2.92268e-05
2.8261e-05
2.46864e-05
2.28848e-05
2.16383e-05
2.09434e-05
2.06746e-05
2.06277e-05
2.06706e-05
2.0929e-05
2.17386e-05
2.37772e-05
2.59724e-05
2.75496e-05
2.82219e-05
2.23366e-05
2.15339e-05
2.08464e-05
2.09962e-05
2.32609e-05
2.6695e-05
2.74849e-05
2.6922e-05
2.45794e-05
2.2754e-05
2.19881e-05
2.18221e-05
2.18206e-05
2.18076e-05
2.18189e-05
2.20768e-05
2.28268e-05
2.32787e-05
2.05548e-05
2.06232e-05
2.04609e-05
2.0463e-05
2.08002e-05
2.19595e-05
2.35283e-05
2.41942e-05
2.43329e-05
2.44422e-05
2.4522e-05
2.45207e-05
2.44367e-05
2.4451e-05
2.45238e-05
2.4471e-05
2.43295e-05
2.43692e-05
2.0594e-05
2.15403e-05
2.13499e-05
2.1037e-05
2.13856e-05
2.26648e-05
2.28132e-05
2.28022e-05
2.29085e-05
2.3235e-05
2.4115e-05
2.71539e-05
3.09648e-05
3.24623e-05
3.24186e-05
3.08916e-05
2.68706e-05
2.42127e-05
2.03183e-05
2.04313e-05
2.06237e-05
2.06374e-05
2.07001e-05
2.09884e-05
2.09576e-05
2.08328e-05
2.08525e-05
2.11694e-05
2.20566e-05
2.27454e-05
2.39239e-05
2.55435e-05
2.66181e-05
2.67278e-05
2.61805e-05
2.56248e-05
2.00064e-05
2.00422e-05
2.01729e-05
2.05199e-05
2.16397e-05
2.17367e-05
2.111e-05
2.09184e-05
2.10746e-05
2.21499e-05
2.38506e-05
2.47718e-05
2.50874e-05
2.51213e-05
2.5042e-05
2.44587e-05
2.36953e-05
2.33483e-05
2.14025e-05
2.10431e-05
2.09326e-05
2.24634e-05
2.87609e-05
3.088e-05
2.87272e-05
2.36979e-05
2.18109e-05
2.12685e-05
2.11612e-05
2.11599e-05
2.12128e-05
2.1405e-05
2.16093e-05
2.17582e-05
2.18362e-05
2.1881e-05
2.13222e-05
2.07953e-05
2.15217e-05
2.44397e-05
3.13599e-05
3.48018e-05
3.41905e-05
2.83045e-05
2.3912e-05
2.23603e-05
2.19396e-05
2.19035e-05
2.20263e-05
2.22559e-05
2.23585e-05
2.23824e-05
2.23773e-05
2.233e-05
2.03503e-05
2.11326e-05
2.23723e-05
2.54409e-05
3.2429e-05
3.53271e-05
3.40361e-05
2.72645e-05
2.33905e-05
2.22809e-05
2.21361e-05
2.2303e-05
2.27529e-05
2.29024e-05
2.29053e-05
2.27748e-05
2.22651e-05
2.17786e-05
2.20563e-05
2.16128e-05
2.30605e-05
2.71575e-05
2.72789e-05
2.44807e-05
2.1741e-05
2.08278e-05
2.06806e-05
2.07235e-05
2.11196e-05
2.28281e-05
2.83915e-05
3.31033e-05
3.42575e-05
3.36933e-05
3.02615e-05
2.65675e-05
2.11204e-05
2.08922e-05
2.05853e-05
2.17707e-05
2.45656e-05
2.50922e-05
2.44688e-05
2.2965e-05
2.25755e-05
2.26531e-05
2.31678e-05
2.47434e-05
3.15352e-05
4.06693e-05
4.33772e-05
4.28619e-05
3.87486e-05
3.2641e-05
2.06361e-05
2.0498e-05
2.00219e-05
1.99893e-05
2.01293e-05
2.0648e-05
2.10205e-05
2.10992e-05
2.10544e-05
2.07326e-05
1.98408e-05
1.92863e-05
1.90888e-05
1.89883e-05
1.88565e-05
1.87543e-05
1.87064e-05
1.87138e-05
2.00426e-05
1.77756e-05
1.31309e-05
1.28266e-05
1.31365e-05
1.35552e-05
1.41493e-05
1.47108e-05
1.49992e-05
1.5035e-05
1.49039e-05
1.4394e-05
1.40292e-05
1.38378e-05
1.36962e-05
1.36077e-05
1.35994e-05
1.36212e-05
2.12598e-05
3.05572e-05
4.07122e-05
4.06442e-05
3.3915e-05
2.60011e-05
2.26071e-05
2.11539e-05
2.04e-05
1.99714e-05
1.97159e-05
1.95861e-05
1.95592e-05
1.95512e-05
1.95903e-05
1.98257e-05
2.04565e-05
2.21535e-05
0.000104535
0.000604178
0.000686762
0.000495662
0.000209622
8.81434e-05
4.35325e-05
2.75576e-05
2.14334e-05
1.88648e-05
1.78127e-05
1.74917e-05
1.7476e-05
1.76765e-05
1.86881e-05
2.265e-05
3.09659e-05
3.72301e-05
0.0650547
0.100855
0.109693
0.118431
0.121944
0.121337
0.119788
0.117456
0.116644
0.117102
0.119202
0.120763
0.12762
0.136636
0.145275
0.1546
0.168894
0.198591
0.229478
0.232498
0.193234
0.111579
0.0953947
0.101275
0.103963
0.0993237
0.0945653
0.0933213
0.0928101
0.0926506
0.0925516
0.0924351
0.0922997
0.091563
0.0898147
0.0874236
0.0848967
0.0823924
0.0799873
0.0777528
0.0756892
0.0736249
0.0716674
0.0697316
0.0679316
0.0664548
0.0654821
0.0647403
0.0638237
0.0628267
0.0621836
0.0618115
0.0614666
0.0611212
0.0610315
0.0610832
0.0608155
0.0605898
0.0608329
0.0622179
0.0638053
0.0653524
0.0671637
0.0680766
0.0686529
0.0692504
0.0698867
0.0712148
0.0737021
0.0766423
0.0794896
0.0823333
0.0854632
0.0885138
0.0908792
0.0941785
0.0981983
0.100663
0.101884
0.102121
0.100713
0.0980388
0.100902
0.114724
0.125231
0.156692
0.254144
0.32535
0.336569
0.313318
0.298446
0.318346
0.511155
0.815223
1.08156
1.12796
0.964217
0.305727
0.152128
0.113903
0.0966947
0.0846544
0.0726509
0.0668555
0.0601547
0.0562927
0.0535283
0.0508615
0.0495763
0.0486679
0.0483728
0.0485462
0.0486189
0.0486531
0.0485906
0.0484786
0.0483285
0.0480969
0.0477549
0.0474025
0.0468927
0.0463293
0.045712
0.0449551
0.0441425
0.0432655
0.0422692
0.041179
0.0400696
0.0388987
0.0378549
0.0369579
0.0363045
0.0358322
0.0353535
0.0350056
0.0346972
0.0344818
0.034325
0.0342219
0.0343213
0.0347478
0.035506
0.0359094
0.035959
0.0358869
0.0355677
0.0351585
0.0347698
0.0344782
0.0343618
0.0344284
0.0347622
0.0354381
0.0360822
0.0372335
0.0394811
0.042324
0.0449155
0.0472927
0.0504475
0.0545529
0.0589173
0.0625638
0.0647574
0.0655142
0.0655355
0.0648935
0.0627513
0.0601911
0.0588472
0.0578972
0.0568582
0.0568768
0.0583712
0.0585369
0.0480409
0.028218
0.0277011
0.0262729
0.075247
0.0935006
0.134254
0.142974
0.144881
0.145101
0.144152
0.140578
0.133561
0.128937
0.125406
0.123391
0.123877
0.125359
0.12984
0.138189
0.152748
0.188968
0.202935
0.17332
0.10711
0.0880834
0.0844576
0.0838341
0.081169
0.0754819
0.0705906
0.067591
0.0657141
0.0640795
0.0620614
0.0600418
0.0580098
0.056459
0.0556465
0.0542775
0.052259
0.0505299
0.0491434
0.0475035
0.0455806
0.043258
0.0401417
0.0373897
0.0361997
0.035878
0.0358324
0.0359279
0.0363477
0.0371986
0.0384189
0.0397643
0.0410215
0.0415656
0.041493
0.0415312
0.0414572
0.0413387
0.0415648
0.0423817
0.0436008
0.0444493
0.0464838
0.0482432
0.0509683
0.0549714
0.0607035
0.0696036
0.0811326
0.0927208
0.103552
0.114687
0.125336
0.133285
0.139138
0.145929
0.152193
0.155752
0.157133
0.157352
0.156692
0.153364
0.138866
0.123307
0.121223
0.126063
0.149342
0.225926
0.249018
0.220035
0.190054
0.205619
0.301232
0.402999
1.01173
1.11645
0.502288
0.172114
0.0995627
0.0789979
0.0704544
0.0663536
0.0644209
0.0636181
0.063193
0.0629378
0.0627243
0.0624221
0.0622111
0.0617954
0.0615007
0.0610614
0.0606649
0.0604256
0.0601452
0.0599792
0.0598993
0.059849
0.0598433
0.0598907
0.0600079
0.060152
0.0603033
0.0604655
0.0605896
0.0606768
0.0607234
0.060684
0.0606275
0.0603148
0.0596464
0.0585256
0.0569416
0.0552343
0.0532715
0.0513077
0.049164
0.0467689
0.0440901
0.0415068
0.0393278
0.0377126
0.0363568
0.0352584
0.0343618
0.0335964
0.0329305
0.0323566
0.0318564
0.031416
0.030984
0.0305451
0.030019
0.029396
0.0287528
0.0278975
0.0264874
0.0249286
0.0242219
0.0242759
0.0249022
0.0265686
0.0286565
0.0328271
0.0390244
0.045153
0.0496254
0.0516279
0.0518204
0.0511358
0.0465519
0.0383071
0.0327625
0.0284583
0.0278275
0.0309744
0.0359227
0.035605
0.0361211
0.0389334
0.0672513
0.163313
0.156532
0.134954
0.115043
0.113647
0.115894
0.121044
0.128383
0.132572
0.132483
0.131512
0.129388
0.12834
0.129125
0.132657
0.138536
0.152991
0.176654
0.17227
0.113013
0.0875665
0.0836168
0.0832934
0.0831418
0.0819041
0.0795384
0.073964
0.0658306
0.0611335
0.0583149
0.0530684
0.0460885
0.0420879
0.0402288
0.0386168
0.0367889
0.0356285
0.0347567
0.0337713
0.032889
0.031697
0.031351
0.0314045
0.0319657
0.032795
0.0334925
0.0341123
0.0350081
0.0365514
0.0389102
0.041905
0.0458455
0.0499582
0.0516955
0.052021
0.050768
0.0490077
0.0472065
0.0470737
0.0471225
0.0477931
0.0493532
0.0519932
0.0550174
0.0612198
0.0746891
0.0917012
0.108397
0.12316
0.134723
0.143979
0.150781
0.154899
0.157233
0.159863
0.161829
0.162959
0.163729
0.164734
0.165074
0.166197
0.16399
0.147278
0.12753
0.122406
0.124075
0.13627
0.168036
0.170257
0.163915
0.168893
0.19723
0.505758
1.15862
0.625645
0.190471
0.0935693
0.0710491
0.0636718
0.0603736
0.0585378
0.0574054
0.0566908
0.0555732
0.0545567
0.0536402
0.0524226
0.0515013
0.0504837
0.0496977
0.0489822
0.0484253
0.0480637
0.0478731
0.0477861
0.0477627
0.0479305
0.0481345
0.0485369
0.0492661
0.0501977
0.0513309
0.0527236
0.0542494
0.0559574
0.0576582
0.0593098
0.060952
0.0626371
0.0644182
0.0661582
0.0676422
0.0688266
0.069825
0.0705746
0.0710184
0.0711184
0.0708184
0.0694485
0.0668013
0.0631017
0.0588349
0.0542818
0.0500431
0.0465973
0.0441294
0.0423833
0.0410783
0.0400887
0.039212
0.0381277
0.0365782
0.0346257
0.0328413
0.0317636
0.0312621
0.0306444
0.0285264
0.0247753
0.0218272
0.0188938
0.0167214
0.0161801
0.0163072
0.0167811
0.0179301
0.0205005
0.0224401
0.0227583
0.0217291
0.0179182
0.0145617
0.0121182
0.0110956
0.0113104
0.0127508
0.017882
0.0203062
0.0254557
0.131538
0.15548
0.11007
0.0726114
0.0751281
0.0829092
0.0929896
0.101187
0.101605
0.103135
0.106541
0.111739
0.115929
0.119671
0.12462
0.128588
0.133985
0.139827
0.14869
0.159439
0.150448
0.110509
0.0918442
0.0903322
0.0925826
0.0931628
0.0873612
0.0713052
0.0641545
0.0608331
0.0576796
0.0530834
0.048741
0.0468165
0.0453784
0.0435274
0.0417891
0.0393748
0.0364998
0.0338195
0.0324161
0.0318158
0.0313749
0.0307211
0.0296795
0.0282219
0.0268909
0.0264165
0.0264006
0.0280899
0.0322653
0.0376016
0.0434308
0.0495445
0.0543205
0.0567291
0.0576207
0.0574173
0.0534469
0.0485166
0.0468436
0.0465368
0.0470932
0.0484135
0.0515803
0.059205
0.0727606
0.0880565
0.103221
0.116208
0.124643
0.128501
0.128505
0.127424
0.125457
0.123503
0.121123
0.119966
0.121223
0.129463
0.140416
0.154212
0.177444
0.189823
0.188016
0.175177
0.142684
0.138642
0.142257
0.144417
0.144342
0.151169
0.217809
0.781241
0.969373
0.263961
0.100573
0.0692415
0.0616651
0.0590343
0.0578766
0.0570786
0.0562048
0.0554225
0.0543815
0.0530328
0.0516066
0.0499411
0.0481153
0.0460502
0.0439521
0.042083
0.0403846
0.038757
0.037501
0.0366208
0.0362318
0.0361281
0.0361585
0.0364423
0.0368993
0.037367
0.0379061
0.0384668
0.0391763
0.0401006
0.0413676
0.042797
0.0442755
0.0458606
0.0475102
0.0493469
0.0515851
0.0541868
0.0572593
0.0607866
0.0646203
0.0685543
0.0722612
0.0753522
0.07737
0.0787944
0.0797122
0.0801516
0.0797766
0.0780408
0.0756862
0.0734427
0.0717801
0.0707483
0.0699479
0.0682904
0.0644336
0.0567102
0.0462535
0.0376361
0.0331189
0.0323871
0.0335773
0.0343789
0.0339494
0.0308755
0.024177
0.0201982
0.0184192
0.0180775
0.018259
0.0190667
0.0198688
0.0200003
0.0196705
0.0181211
0.0168898
0.0164095
0.0162573
0.0161878
0.0161704
0.016697
0.0168984
0.0174529
0.107871
0.0839893
0.0511014
0.0568003
0.0788541
0.107853
0.124315
0.13319
0.134322
0.131778
0.124276
0.11625
0.113644
0.113498
0.114296
0.116985
0.12325
0.131714
0.139602
0.144932
0.150886
0.144725
0.132574
0.122549
0.117579
0.111029
0.0927234
0.0713157
0.0617183
0.0575249
0.0547511
0.0518114
0.0478113
0.0450414
0.0420586
0.0378681
0.0332926
0.0279684
0.0244842
0.0226347
0.0204339
0.0184304
0.0163965
0.0143835
0.0125257
0.0110295
0.0102349
0.00985594
0.00971277
0.0100294
0.0119635
0.0154216
0.0208227
0.0277973
0.0366939
0.0468275
0.0534188
0.0561106
0.0564219
0.0526831
0.0490145
0.0460366
0.0446651
0.0449058
0.0467167
0.0513285
0.057834
0.0646078
0.070332
0.0717623
0.0703463
0.0676959
0.0655944
0.0651012
0.0655349
0.0663815
0.0676876
0.0707224
0.0784119
0.103555
0.135549
0.145882
0.152151
0.170115
0.190815
0.194189
0.189306
0.165161
0.147946
0.144546
0.146166
0.169591
0.353572
0.859118
0.525377
0.137074
0.0736924
0.0622231
0.0594373
0.0585023
0.0579383
0.0573187
0.0564595
0.055131
0.053359
0.0515005
0.0487314
0.0452758
0.041881
0.0384727
0.0355054
0.0336531
0.0324686
0.0319709
0.0318545
0.0318651
0.0320382
0.0323637
0.0327924
0.0333222
0.0338766
0.0343633
0.0347295
0.034934
0.0350222
0.0349098
0.0351339
0.0357547
0.036993
0.0387833
0.0406626
0.042133
0.0435313
0.0448522
0.0458999
0.0468078
0.0477894
0.0491152
0.0513659
0.0551536
0.0608275
0.0674863
0.0744829
0.0807002
0.0852145
0.0885564
0.0913237
0.0938003
0.0963383
0.0989995
0.101381
0.102945
0.103234
0.101608
0.0940902
0.0737565
0.0497676
0.0344236
0.029183
0.0291274
0.0319615
0.0345858
0.0347336
0.0334727
0.0279498
0.0228997
0.0206814
0.0202122
0.0202235
0.0201706
0.0199156
0.0195357
0.0188148
0.0167604
0.0138492
0.0121678
0.0117442
0.0116112
0.0116231
0.0126349
0.0723613
0.0665478
0.040172
0.0657893
0.106331
0.124519
0.13544
0.14199
0.146144
0.146487
0.145048
0.139577
0.127184
0.118236
0.11477
0.114708
0.115768
0.119403
0.127266
0.134935
0.138843
0.143144
0.142757
0.144771
0.143434
0.129458
0.0988227
0.0701977
0.0588373
0.0537203
0.0503773
0.0464263
0.0402001
0.0318075
0.0235704
0.018515
0.0141809
0.0122778
0.0110758
0.0100821
0.00954449
0.00908773
0.00879637
0.00848938
0.00818741
0.00791292
0.00761952
0.00728383
0.00673904
0.00604106
0.00554127
0.00520412
0.00526843
0.00610567
0.00842381
0.0131968
0.0223456
0.0340292
0.044924
0.0509903
0.0521598
0.0506499
0.0484378
0.0473191
0.0472522
0.0480959
0.0490838
0.0495404
0.049563
0.0493082
0.0487595
0.048404
0.0483706
0.0488441
0.0500624
0.051237
0.0527662
0.0559633
0.0644809
0.0899693
0.136458
0.165691
0.169794
0.170607
0.180111
0.195882
0.19872
0.193668
0.16671
0.151614
0.157832
0.230308
0.551557
0.814475
0.273201
0.0908867
0.0647808
0.0602961
0.0592913
0.0588872
0.0587482
0.0585085
0.0564983
0.0534826
0.0505673
0.0463315
0.039783
0.0340597
0.0316886
0.0306036
0.030187
0.0300901
0.0301094
0.0303006
0.0306134
0.0310491
0.0316096
0.0321646
0.0326955
0.0332783
0.03387
0.034399
0.0348096
0.0349912
0.0349775
0.0343395
0.0336259
0.0328137
0.0321352
0.0316591
0.0321307
0.0342989
0.0376866
0.0411083
0.0434626
0.0451247
0.0462388
0.0470353
0.0475016
0.0478012
0.0481774
0.049154
0.0510031
0.0550256
0.0623519
0.0716975
0.0813705
0.0895016
0.0954145
0.100232
0.10435
0.107641
0.109874
0.110877
0.110829
0.108697
0.0981229
0.0660492
0.0389999
0.0279635
0.0264493
0.0279294
0.0325758
0.0346506
0.0346112
0.0330146
0.0272554
0.023186
0.0214234
0.0206411
0.0202553
0.0198153
0.0187073
0.0152141
0.0108783
0.00814457
0.00687809
0.00647087
0.00641274
0.00711093
0.0663359
0.0632835
0.0332568
0.0839775
0.112482
0.127147
0.137399
0.144253
0.148435
0.151417
0.15146
0.150403
0.146738
0.137737
0.124065
0.117319
0.115981
0.116303
0.118185
0.123568
0.128707
0.131814
0.136891
0.145263
0.151211
0.138155
0.101251
0.0676652
0.0538324
0.0469413
0.0390876
0.02901
0.0202777
0.0143029
0.0115529
0.0102403
0.00964181
0.00943484
0.00938316
0.00945289
0.00972963
0.00999599
0.0105279
0.0109977
0.0113246
0.0114659
0.0113766
0.010741
0.00934558
0.00757
0.00602797
0.00471958
0.00388785
0.00323057
0.00296296
0.0029754
0.00383637
0.00606811
0.010938
0.0205803
0.0318795
0.0410383
0.0459662
0.0473109
0.0479022
0.0481761
0.0482015
0.0480436
0.0476246
0.0469782
0.0463399
0.0458943
0.0457854
0.0458774
0.0462861
0.0468484
0.0476774
0.049328
0.0533021
0.0654057
0.112117
0.168465
0.192101
0.193454
0.19265
0.197509
0.203525
0.20172
0.180188
0.167363
0.187516
0.365565
0.62909
0.629484
0.157858
0.072931
0.0618614
0.0601104
0.0597346
0.0602677
0.0604262
0.0587932
0.0545834
0.0488062
0.0422229
0.0353755
0.0320626
0.0304563
0.0297901
0.029594
0.0295728
0.0296989
0.0300371
0.0306297
0.0317155
0.0330921
0.0345227
0.0358183
0.0366228
0.0372277
0.0376379
0.037923
0.03863
0.0395962
0.0400496
0.0399766
0.0386643
0.0363524
0.0337705
0.0312853
0.0291334
0.0274904
0.0265535
0.0275435
0.0324045
0.038601
0.0435158
0.0466795
0.0487074
0.0500037
0.0507178
0.0507037
0.0500907
0.0493812
0.0493664
0.0502452
0.05329
0.0602807
0.0700675
0.0810051
0.0915091
0.0999989
0.106354
0.110336
0.11187
0.111932
0.110675
0.103706
0.0751919
0.0425697
0.0273484
0.0236803
0.0245772
0.0297661
0.0336089
0.0343662
0.0339038
0.0307757
0.0248757
0.0221062
0.0210844
0.0199505
0.0174872
0.0141217
0.0107233
0.00784799
0.00593038
0.0051339
0.00498694
0.00508209
0.0641487
0.0617364
0.0290665
0.0919913
0.113082
0.125828
0.136937
0.144448
0.149071
0.152515
0.154273
0.1541
0.152739
0.149027
0.141482
0.128389
0.118758
0.116757
0.11697
0.118372
0.122734
0.125457
0.129361
0.139251
0.151645
0.13944
0.100474
0.0611222
0.0421572
0.0323366
0.0215903
0.0151924
0.0121829
0.0109335
0.0105671
0.0105127
0.0109993
0.0122957
0.013822
0.0156883
0.0175887
0.0192827
0.0203018
0.0209233
0.0211691
0.0210144
0.0204502
0.0192176
0.0169977
0.0140095
0.0105683
0.00780571
0.00535798
0.00366537
0.00277503
0.0021579
0.00182253
0.00163315
0.00179855
0.00260726
0.00452245
0.00833588
0.015171
0.0242172
0.0326243
0.0393116
0.0434759
0.0459744
0.0473069
0.0477626
0.0477412
0.0473594
0.046715
0.0462499
0.0461471
0.0463254
0.0467717
0.047639
0.0495998
0.0557065
0.0798066
0.152384
0.198921
0.209907
0.208329
0.207057
0.207732
0.205329
0.185375
0.18372
0.251449
0.492546
0.629166
0.375745
0.105554
0.0659075
0.0609987
0.0603611
0.0609425
0.0619721
0.0615413
0.0574126
0.0492442
0.0394142
0.0342323
0.0317145
0.0303422
0.0296995
0.0295207
0.0295411
0.0297966
0.0302604
0.0314477
0.0339188
0.0373826
0.0413428
0.0453014
0.0486968
0.0502792
0.0508572
0.0506244
0.0488007
0.047627
0.0470665
0.0480046
0.0495478
0.0503832
0.0489538
0.0457749
0.0411025
0.0355618
0.0301303
0.0257426
0.0225947
0.0207384
0.0209628
0.0259435
0.0343956
0.0417934
0.0470843
0.051051
0.0539239
0.0558163
0.05663
0.0559269
0.0531874
0.0512476
0.0508628
0.0515944
0.055017
0.06349
0.076611
0.0908949
0.102327
0.108619
0.110805
0.110898
0.109095
0.100086
0.0698977
0.0402704
0.0253417
0.0211094
0.0215939
0.026452
0.0320573
0.0336525
0.0335769
0.0317973
0.0261627
0.0228339
0.0204998
0.0177143
0.0143948
0.0111315
0.00872402
0.00750143
0.00705304
0.00686661
0.00655785
0.0622532
0.0599287
0.0278768
0.0947502
0.105861
0.117325
0.130202
0.139973
0.146468
0.150266
0.152314
0.152981
0.152336
0.14975
0.144086
0.135735
0.125501
0.118688
0.117464
0.118241
0.121087
0.123772
0.125028
0.128223
0.149519
0.137812
0.0940915
0.0471852
0.0281628
0.0192215
0.0140853
0.0121129
0.0115711
0.0114791
0.0125384
0.0150693
0.0193003
0.0246966
0.0284695
0.0313134
0.033462
0.0344987
0.0349354
0.034984
0.0345203
0.0332314
0.0320099
0.0294169
0.0264399
0.0222291
0.0173801
0.0128164
0.00864831
0.00605845
0.00393205
0.00261531
0.00185167
0.00141597
0.00111598
0.000928609
0.000894675
0.00105609
0.00158902
0.00285005
0.00545693
0.0101612
0.0177366
0.0264002
0.0346601
0.0411426
0.0454457
0.0479946
0.0490457
0.0492571
0.0490376
0.0485061
0.0481468
0.0481713
0.0491708
0.0535127
0.0705486
0.135153
0.198755
0.22024
0.221332
0.217925
0.21463
0.206397
0.190824
0.204532
0.350994
0.545068
0.586706
0.222719
0.0817843
0.0630948
0.0610504
0.0609888
0.0628195
0.0633208
0.0613988
0.0539647
0.0420071
0.0344561
0.0318808
0.0307144
0.0299124
0.0296197
0.0296143
0.0300147
0.0308542
0.0325044
0.0364715
0.0430356
0.0515908
0.0600246
0.0660795
0.0683368
0.06936
0.0702335
0.0711656
0.071118
0.0684023
0.0640579
0.0596137
0.0573344
0.0582967
0.0591108
0.0587213
0.0570159
0.0527891
0.0457792
0.036475
0.0274356
0.0206876
0.0168355
0.0149089
0.0150798
0.0190848
0.0276769
0.0372524
0.0461104
0.0531296
0.0581709
0.0614283
0.0630278
0.0628993
0.0596489
0.0560747
0.0553242
0.0567772
0.0652331
0.0826409
0.0948687
0.102597
0.106569
0.107751
0.107408
0.103288
0.0857909
0.0562973
0.0334932
0.0214812
0.0180046
0.0184565
0.0229153
0.0301792
0.0327311
0.0327501
0.0315765
0.0270799
0.0223342
0.0185192
0.015135
0.0129494
0.0122883
0.0123935
0.012602
0.0123014
0.0104049
0.0598349
0.0590025
0.0307878
0.0936321
0.102399
0.111428
0.122764
0.132758
0.140578
0.145138
0.147728
0.14919
0.149863
0.148115
0.143104
0.135668
0.12826
0.122429
0.119664
0.119609
0.121158
0.122266
0.118487
0.121806
0.141458
0.13093
0.0802697
0.0326749
0.0192873
0.0143884
0.0127218
0.0123567
0.0129006
0.0156634
0.0218861
0.0325715
0.0383972
0.043117
0.0453992
0.0476569
0.0488068
0.0495526
0.0498721
0.0495651
0.0485671
0.0477672
0.0455669
0.0430863
0.0396083
0.0350989
0.0285959
0.0201953
0.0136425
0.00939637
0.00616591
0.00391677
0.00243801
0.00159264
0.00112751
0.000843897
0.00066005
0.000554311
0.000493227
0.000495851
0.000616781
0.00100009
0.00191789
0.00394054
0.00783853
0.0153191
0.0264121
0.0379799
0.0456808
0.0492083
0.0501629
0.050273
0.0499759
0.0497847
0.0502353
0.0533667
0.0679087
0.127253
0.198312
0.227317
0.231168
0.228854
0.222755
0.205168
0.197332
0.236395
0.432727
0.55097
0.435026
0.144088
0.0712916
0.0621189
0.0612594
0.0623115
0.0644609
0.0645919
0.061454
0.0525296
0.0395659
0.0331455
0.0312912
0.0304373
0.0298905
0.0297633
0.0302192
0.0315239
0.0335427
0.0377004
0.0465122
0.0599881
0.0716572
0.0746065
0.0745229
0.0736488
0.0736107
0.0742777
0.0763075
0.0790692
0.0811478
0.082124
0.0812826
0.0776778
0.0731195
0.0692886
0.0663229
0.0645654
0.0634988
0.0617405
0.0570006
0.0459733
0.0311655
0.0203712
0.0143037
0.0111085
0.00956112
0.00969416
0.0125565
0.0214626
0.0342168
0.0464843
0.0560867
0.0628908
0.0668072
0.0682954
0.0683804
0.067915
0.0684052
0.0716212
0.0832923
0.0932987
0.0983281
0.100885
0.10195
0.101944
0.0997049
0.0882303
0.0652714
0.043089
0.026065
0.0171109
0.0147805
0.0153534
0.0196898
0.028233
0.0314598
0.031485
0.0305258
0.0264265
0.0206513
0.0175796
0.0165437
0.0164641
0.0169671
0.0173542
0.0171175
0.015013
0.055062
0.0576721
0.0329315
0.0884902
0.0946001
0.102222
0.113115
0.123817
0.134126
0.140473
0.143324
0.144633
0.144271
0.143784
0.1405
0.134535
0.128145
0.123691
0.121488
0.120854
0.120892
0.117954
0.110918
0.118945
0.130096
0.118286
0.0530136
0.0232259
0.0156167
0.0135776
0.0131145
0.0141215
0.0182814
0.0281511
0.0405444
0.0465082
0.0515054
0.0540594
0.0560236
0.0573755
0.0582195
0.0587852
0.0590387
0.0590018
0.058565
0.0569379
0.0544464
0.051078
0.0478555
0.044647
0.041328
0.035367
0.02488
0.0156416
0.0103496
0.00644554
0.00380108
0.00216805
0.00128699
0.000851677
0.000620855
0.000486871
0.000403924
0.000337432
0.000291975
0.000278653
0.000308973
0.000457257
0.000884697
0.00198554
0.00489814
0.0138696
0.0310502
0.0430428
0.0479039
0.0487072
0.0492795
0.0497167
0.0504042
0.0534816
0.0674269
0.124369
0.19789
0.232618
0.239038
0.237261
0.228858
0.204687
0.204033
0.279557
0.478035
0.534901
0.284535
0.104864
0.066582
0.0620527
0.0617129
0.0640312
0.0659091
0.0657744
0.0619752
0.0528952
0.0400273
0.033196
0.0312631
0.030437
0.0300735
0.0302438
0.0317152
0.0342338
0.0376171
0.0453539
0.0609454
0.075651
0.0788083
0.0787227
0.075547
0.0736643
0.0730998
0.0732189
0.075104
0.0785546
0.081917
0.0845005
0.0862911
0.0873378
0.0873989
0.0861836
0.0831672
0.077822
0.0724118
0.0693058
0.0672797
0.0626324
0.0499512
0.0329142
0.0201866
0.0125506
0.00852038
0.00639182
0.0056136
0.00613733
0.0093932
0.0194927
0.0345855
0.0492423
0.0603392
0.0667721
0.070151
0.0725332
0.0776374
0.084656
0.0908321
0.0939399
0.0938888
0.0933218
0.0928271
0.0919519
0.0894943
0.080614
0.06447
0.0478097
0.0315857
0.0193481
0.0130849
0.0117954
0.0125381
0.0170679
0.0263342
0.0298994
0.0300353
0.0292247
0.0254225
0.0212277
0.019497
0.0191461
0.0193848
0.0196983
0.0196178
0.0184227
0.0491639
0.0559542
0.0391884
0.0836231
0.0866953
0.0931346
0.102829
0.112434
0.123681
0.133748
0.138158
0.139654
0.139844
0.138217
0.136644
0.132514
0.127432
0.123539
0.121452
0.120358
0.117683
0.108154
0.104347
0.113756
0.119155
0.0921282
0.035549
0.0187353
0.0148468
0.0139802
0.0148049
0.0195724
0.0322777
0.0470698
0.0543627
0.0584669
0.0606552
0.0616072
0.0619993
0.0621834
0.0629298
0.0639942
0.0644635
0.0646376
0.0638743
0.0621316
0.0592432
0.0556439
0.0516929
0.0478821
0.0450286
0.0421092
0.0366492
0.0265804
0.0174968
0.0111644
0.00664199
0.00367571
0.00193446
0.00103924
0.000637561
0.000455599
0.000368768
0.000301286
0.000249407
0.000212404
0.000192576
0.00019056
0.000218931
0.000349895
0.000826589
0.00257254
0.0101325
0.0295744
0.0409111
0.0447258
0.0465461
0.048134
0.0496333
0.0533923
0.0675385
0.12398
0.197118
0.235478
0.244922
0.243838
0.233057
0.206054
0.211476
0.320491
0.488641
0.452129
0.195463
0.0858795
0.0645484
0.0621417
0.0625052
0.0655283
0.0670327
0.0668192
0.0632784
0.0545926
0.042454
0.0340483
0.0315512
0.0307378
0.0305458
0.031134
0.0333899
0.0369311
0.0418249
0.0526735
0.0724527
0.0808488
0.0818253
0.0801985
0.0747466
0.0702301
0.0676073
0.0664514
0.0668758
0.0705896
0.0763137
0.0813644
0.0853083
0.0877299
0.0891335
0.0897916
0.0898739
0.0891134
0.0869005
0.0829089
0.0769608
0.0696549
0.0593909
0.045649
0.0310667
0.0189105
0.0110483
0.00669403
0.00449391
0.00348379
0.00341486
0.00443011
0.00835187
0.0198568
0.0376996
0.0523112
0.0622219
0.0702551
0.0789451
0.0865005
0.0885903
0.0882733
0.0867546
0.0847551
0.0808361
0.0738592
0.0671109
0.0610571
0.054049
0.0446301
0.0335318
0.0222622
0.0138475
0.00978001
0.00923187
0.0101761
0.0150761
0.0245929
0.0283883
0.028772
0.0281036
0.0248752
0.0216843
0.0206274
0.0205839
0.0205935
0.0203836
0.0194468
0.040391
0.0537755
0.0446815
0.0818924
0.0801395
0.0829535
0.091066
0.100346
0.109778
0.121819
0.130881
0.134359
0.135238
0.133767
0.131132
0.128378
0.12519
0.121894
0.119379
0.115529
0.106651
0.10084
0.0993075
0.105243
0.107105
0.0607619
0.0263892
0.017108
0.0152316
0.0153426
0.0195137
0.033314
0.0498857
0.0579864
0.06137
0.0625347
0.0627791
0.062622
0.0628969
0.0643532
0.0666423
0.0685658
0.0695123
0.0698254
0.0690521
0.0672249
0.0639244
0.0592509
0.0550097
0.0506313
0.0465497
0.043905
0.0403048
0.0324376
0.0225677
0.01456
0.00869029
0.00487686
0.00265497
0.00142746
0.000778441
0.000464464
0.000339608
0.00028107
0.000232195
0.000194754
0.000171461
0.000158593
0.000156085
0.000168952
0.000248348
0.000630331
0.00249646
0.0122675
0.0295181
0.0386266
0.0429002
0.0456135
0.0478355
0.052575
0.0681194
0.125833
0.196909
0.236371
0.248612
0.248467
0.236702
0.208825
0.218473
0.345073
0.481202
0.347368
0.145254
0.0760881
0.0640152
0.0624522
0.0631292
0.0661429
0.0677689
0.0676823
0.0650946
0.0583973
0.0486499
0.0375521
0.0327288
0.0314809
0.0312076
0.0317284
0.0342163
0.0387507
0.0446909
0.0567823
0.0765307
0.0829433
0.0835062
0.0809611
0.0742124
0.0679545
0.0637965
0.061027
0.0596949
0.0596431
0.062234
0.0688628
0.0770508
0.0829964
0.086923
0.0892025
0.0902232
0.090448
0.0901341
0.0890223
0.0858861
0.0770672
0.064253
0.0508584
0.037854
0.0260873
0.0162062
0.00929176
0.00528009
0.00322832
0.00225274
0.00197908
0.00225242
0.00374952
0.00884579
0.0234648
0.0428783
0.060461
0.0724497
0.0775505
0.0790073
0.0793961
0.0793993
0.0778989
0.0695692
0.0541001
0.0432614
0.0370852
0.0353739
0.0340197
0.030007
0.0226536
0.0150832
0.00963628
0.00729963
0.0072113
0.00842304
0.0138827
0.023521
0.0273725
0.0277675
0.0268471
0.0235825
0.021877
0.0212681
0.0205104
0.0197887
0.0190452
0.0317307
0.0503269
0.0534579
0.0812748
0.0753093
0.0754495