/*--------------------------------*- C++ -*----------------------------------*\
  =========                 |
  \\      /  F ield         | OpenFOAM: The Open Source CFD Toolbox
   \\    /   O peration     | Website:  https://openfoam.org
    \\  /    A nd           | Version:  6
     \\/     M anipulation  |
\*---------------------------------------------------------------------------*/
FoamFile
{
    version     2.0;
    format      ascii;
    class       volScalarField;
    location    "0.5";
    object      nut;
}
// * * * * * * * * * * * * * * * * * * * * * * * * * * * * * * * * * * * * * //

dimensions      [0 2 -1 0 0 0 0];

internalField   nonuniform List<scalar> 
12225
(
3.62998e-10
0
0
0
0
0
0
0
0
0
0
0
0
0
0
0
0
0
1.50757e-10
0
0
0
0
0
0
0
0
0
0
0
0
0
0
0
0
0
7.6313e-11
0
0
0
0
0
0
0
0
0
0
0
0
0
0
0
0
0
0
0
1.07893e-08
5.62009e-09
0
0
0
0
0
1.38198e-09
2.45017e-09
2.27628e-09
1.75532e-09
8.031e-10
4.38541e-10
0
0
0
0
0
0
3.99854e-07
4.66662e-07
3.78358e-08
0
0
0
0
0
5.89199e-08
1.09566e-07
1.39652e-07
1.24598e-07
8.30315e-08
3.88005e-08
1.68598e-09
0
0
0
2.03869e-07
4.31661e-07
0
0
0
0
0
0
0
7.37764e-08
5.39241e-08
0
0
0
0
0
0
0
1.47718e-08
7.92209e-08
0
0
0
0
0
0
0
0
0
0
0
0
0
5.06446e-07
8.0487e-07
0
0
0
0
0
6.43468e-09
0
0
0
0
0
0
0
0
0
0
1.60634e-06
1.45407e-06
6.71251e-07
0
0
0
0
3.10353e-07
6.61498e-07
4.84703e-11
0
0
0
1.15386e-07
1.69412e-07
1.78057e-07
1.59637e-07
1.44006e-07
1.25155e-06
8.38819e-07
3.3289e-07
0
0
0
1.77158e-07
3.32489e-07
4.5608e-07
4.96389e-07
1.62445e-07
9.44277e-08
6.28878e-08
0
0
0
0
0
1.66906e-06
1.20617e-06
3.50823e-07
0
0
2.15272e-08
2.2023e-07
1.43755e-07
5.65712e-08
9.40121e-08
1.49225e-07
1.38995e-07
0
0
0
0
0
0
1.1266e-06
2.46825e-07
0
0
0
5.69439e-08
5.61166e-07
0
0
0
0
7.48918e-08
1.41017e-07
1.32294e-07
1.13706e-07
1.26875e-07
1.22027e-07
1.63771e-08
6.16414e-07
0
6.6652e-07
1.8522e-06
1.86642e-07
2.73472e-07
4.83996e-07
0
0
0
0
1.93289e-07
4.01391e-07
4.38554e-07
5.09341e-07
5.48961e-07
2.65848e-07
3.19117e-08
2.86758e-07
0
3.94306e-06
4.77779e-06
2.2372e-06
7.00417e-07
2.1988e-07
0
0
0
0
2.85732e-07
6.6044e-07
5.17796e-07
5.40672e-07
8.87287e-07
7.36181e-07
1.81409e-07
0
0
4.51048e-06
6.96261e-06
5.44095e-06
2.96763e-06
8.43093e-07
0
0
0
0
0
9.716e-08
1.99634e-07
2.65916e-07
3.37228e-07
3.58061e-07
3.35808e-07
4.44084e-07
1.15547e-06
1.40214e-06
1.17697e-06
1.20845e-06
1.0845e-06
8.55659e-07
4.60352e-07
0
0
0
0
1.07118e-07
1.8007e-07
2.43956e-07
3.19255e-07
3.71641e-07
3.92231e-07
1.9192e-07
1.39205e-06
1.1464e-06
0
0
0
4.22785e-07
8.80531e-07
5.13151e-07
0
0
1.55831e-07
3.79792e-07
6.11221e-07
6.49655e-07
5.40363e-07
5.38865e-07
5.69103e-07
0
0
7.60356e-07
0
2.50483e-07
8.06154e-07
1.3104e-06
1.69163e-06
1.80197e-07
0
1.0795e-07
4.30676e-07
8.07331e-07
1.111e-06
1.11857e-06
7.48977e-07
3.24927e-07
1.90924e-07
0
0
0
0
0
2.65615e-07
4.73957e-07
5.33206e-07
0
0
6.71058e-08
6.02606e-07
1.13964e-06
1.51118e-06
1.68628e-06
1.63908e-06
1.22444e-06
4.45494e-07
0
0
0
0
0
2.4003e-07
1.69177e-07
2.60718e-08
1.28272e-08
2.59958e-07
7.3094e-07
7.95751e-07
5.96618e-07
1.64265e-06
2.21427e-06
1.55715e-06
7.18091e-07
0
3.08421e-07
0
0
0
1.82279e-08
4.84697e-07
0
0
0
0
0
0
0
0
0
4.65143e-07
0
0
2.10636e-06
2.0966e-06
1.41501e-06
1.62544e-06
2.53915e-06
3.38768e-06
2.95701e-06
0
0
0
0
0
0
0
0
0
0
0
0
0
1.0467e-07
9.1718e-07
2.26997e-06
2.45853e-06
1.99116e-06
4.27926e-07
0
0
0
0
0
0
0
0
0
0
0
0
0
0
1.63776e-06
1.93967e-06
1.64116e-06
5.90118e-07
0
0
0
0
0
0
0
0
0
0
7.73627e-07
7.42492e-07
0
5.90963e-08
6.47763e-07
3.56466e-07
1.03304e-07
0
0
4.66918e-08
0
0
0
0
1.13634e-06
1.50102e-06
9.26314e-07
1.68743e-07
0
3.25957e-08
0
3.41688e-07
2.46833e-07
1.50982e-07
9.09517e-08
8.89197e-09
0
1.4253e-08
2.47916e-07
0
0
0
1.03822e-06
1.40786e-06
1.01012e-06
7.2853e-07
1.00921e-08
1.02442e-08
0
0
1.13073e-09
9.15423e-09
1.3103e-08
1.29935e-08
1.30918e-08
1.47125e-08
1.48492e-08
1.20281e-08
7.12755e-09
2.02864e-09
0
0
0
0
9.14583e-10
0
1.03706e-10
0
0
0
0
0
0
0
5.00539e-10
9.96652e-10
1.23284e-09
1.11963e-09
7.18766e-10
1.90925e-10
0
0
8.66484e-10
2.38624e-10
5.99872e-10
1.57041e-10
0
0
0
0
0
0
0
0
4.74902e-11
5.4175e-11
0
0
0
0
1.63618e-09
1.44404e-09
2.43408e-09
6.35086e-10
0
0
0
0
0
0
0
0
0
0
0
0
0
0
0
3.64645e-06
1.33853e-06
2.96236e-06
2.87919e-06
5.60697e-07
0
0
0
0
0
0
9.28184e-06
1.84652e-05
2.39327e-05
2.2937e-05
1.46913e-05
4.84347e-06
0
0
0
0
0
1.32153e-06
2.00899e-06
2.08103e-06
2.022e-06
1.92326e-06
1.79951e-06
1.67308e-06
1.54754e-06
1.45917e-06
1.42578e-06
1.39917e-06
1.32639e-06
1.20626e-06
1.05879e-06
8.92312e-07
7.11123e-07
5.20543e-07
3.25151e-07
1.31665e-07
0
0
0
0
0
0
0
0
0
0
0
0
0
0
0
0
0
0
0
0
0
0
0
0
0
0
0
0
0
0
0
0
0
0
0
0
0
0
0
0
6.28331e-07
1.38784e-06
5.37323e-07
0
0
0
0
0
4.9552e-06
1.55511e-06
0
3.17024e-05
0.000132498
0.000138357
9.93041e-05
2.59786e-05
6.33017e-06
2.59532e-06
1.8407e-06
1.47438e-06
1.12293e-06
8.53283e-07
6.27838e-07
4.67256e-07
3.45516e-07
2.4598e-07
1.60851e-07
7.98224e-08
0
0
0
0
0
0
0
0
0
0
0
0
0
0
0
0
0
0
0
0
0
0
0
0
0
0
0
0
0
0
2.23352e-07
4.48847e-07
4.00079e-07
3.17393e-07
2.43336e-07
1.8296e-07
1.34052e-07
9.43791e-08
6.15322e-08
3.3458e-08
8.4494e-09
0
0
0
0
0
0
0
0
0
0
0
0
0
0
0
0
0
0
0
0
6.38083e-08
4.29285e-08
2.56183e-08
1.83916e-07
3.70958e-07
2.33847e-07
0
0
0
2.49008e-05
9.85991e-06
9.98878e-06
1.427e-05
1.63883e-05
1.50249e-05
1.1153e-05
5.33894e-06
0
0
0
0
0
0
0
0
1.0653e-07
3.36474e-06
9.84961e-06
1.2136e-05
7.15318e-06
2.18635e-06
1.78687e-06
2.88147e-06
2.88115e-06
2.52162e-06
2.40936e-06
2.40765e-06
2.43989e-06
2.42106e-06
2.29103e-06
2.11291e-06
1.95177e-06
1.80039e-06
1.6154e-06
1.3856e-06
1.1438e-06
9.11816e-07
6.91768e-07
4.82666e-07
2.86104e-07
1.06561e-07
0
0
0
0
0
0
0
0
0
0
0
0
0
0
0
0
0
0
0
0
0
0
0
1.76388e-06
2.17381e-06
0
0
0
0
0
0
0
0
0
0
0
0
0
0
0
2.33481e-07
1.16013e-06
0
0
0
0
0
0
0
9.87388e-06
4.72653e-05
6.53007e-05
5.96555e-05
4.81348e-05
3.55137e-05
1.66385e-05
6.19891e-06
2.93429e-06
2.31199e-06
1.93015e-06
1.52771e-06
1.18064e-06
9.04772e-07
6.93681e-07
5.27379e-07
3.86697e-07
2.57793e-07
1.30622e-07
1.29852e-09
0
0
0
0
0
0
0
0
0
0
0
0
0
0
0
0
0
0
0
0
0
0
0
0
0
0
0
0
0
1.26327e-08
4.81728e-07
5.64663e-07
5.13617e-07
4.31899e-07
3.52457e-07
2.84827e-07
2.31037e-07
1.90447e-07
1.60656e-07
1.36433e-07
1.10103e-07
7.65211e-08
3.92474e-08
7.30612e-09
0
0
0
0
0
0
0
0
0
0
0
0
0
0
0
0
5.08399e-08
1.6057e-08
0
1.27174e-07
3.72789e-07
2.23646e-07
0
0
0
1.99695e-05
1.58905e-05
1.22863e-05
1.50418e-05
1.90245e-05
1.9589e-05
1.74885e-05
1.49099e-05
1.19408e-05
7.83761e-06
2.86634e-06
0
0
0
0
0
0
0
0
1.34691e-06
4.58949e-06
8.66954e-06
1.19206e-05
1.36376e-05
1.2917e-05
9.25321e-06
6.40311e-06
5.84589e-06
6.34127e-06
6.55786e-06
5.92249e-06
4.9946e-06
4.41437e-06
4.17823e-06
3.86559e-06
3.33151e-06
2.66298e-06
1.97916e-06
1.34245e-06
8.00348e-07
3.64425e-07
3.03674e-08
0
0
0
0
0
0
0
0
0
0
3.30355e-07
8.0155e-07
7.55568e-07
3.13562e-07
0
0
0
0
0
0
0
0
0
4.7735e-07
2.74242e-06
4.22006e-06
3.85325e-06
1.32635e-06
0
0
0
0
0
0
0
0
0
0
0
0
0
0
0
0
0
0
0
0
0
1.4346e-05
3.49337e-05
3.26491e-05
3.61405e-05
1.76196e-05
9.82563e-06
7.102e-06
4.05132e-06
3.84304e-06
5.36968e-06
5.58196e-06
4.65419e-06
3.61652e-06
2.76579e-06
2.12885e-06
1.6318e-06
1.20361e-06
8.09619e-07
4.20625e-07
2.76425e-08
0
0
0
0
0
0
0
0
0
0
0
0
0
0
0
0
0
0
0
0
0
0
0
0
0
0
0
0
0
0
0
0
9.92809e-08
3.13609e-07
4.33824e-07
4.95342e-07
5.3248e-07
5.67916e-07
6.08056e-07
6.30271e-07
5.85205e-07
4.47612e-07
2.66448e-07
1.15987e-07
1.226e-08
0
0
0
0
0
0
0
0
0
0
0
0
0
0
0
0
0
0
3.36298e-08
4.66832e-07
2.85871e-07
0
0
0
1.56058e-05
1.85148e-05
1.38064e-05
1.11096e-05
1.12101e-05
6.59239e-06
2.84772e-06
5.17648e-07
0
3.49234e-07
9.4807e-07
3.78355e-07
0
0
0
0
0
0
0
0
0
1.4705e-06
5.55697e-06
7.46125e-06
6.66732e-06
3.86856e-06
0
0
0
0
0
0
0
0
0
0
0
0
0
0
0
0
0
7.17347e-07
1.26682e-06
1.55925e-06
1.69849e-06
1.78227e-06
1.82579e-06
1.89058e-06
1.99639e-06
2.03501e-06
1.90919e-06
1.63879e-06
1.34173e-06
1.14728e-06
1.10475e-06
1.30346e-06
1.91367e-06
2.74801e-06
2.98698e-06
1.73114e-06
0
0
0
0
0
0
0
0
0
0
0
0
0
1.63681e-08
6.22871e-07
1.55068e-06
2.13907e-06
2.74651e-06
3.12206e-06
1.86678e-06
8.34708e-08
1.17349e-07
0
0
0
0
0
0
0
5.48068e-06
1.10842e-05
2.0641e-05
1.92522e-05
4.9683e-06
5.74115e-07
0
0
0
0
1.27757e-07
3.77573e-07
6.75098e-07
1.04156e-06
1.42181e-06
1.78678e-06
2.08266e-06
2.21728e-06
1.99633e-06
1.13254e-06
0
0
0
0
0
0
0
0
0
0
0
0
0
0
0
0
0
0
0
0
0
0
0
0
0
0
0
0
0
0
0
0
0
0
0
0
0
0
0
0
0
0
0
0
0
0
0
0
0
0
0
1.31932e-07
3.59822e-07
2.2953e-07
0
0
2.0102e-07
9.5011e-07
1.0451e-06
2.52134e-07
0
0
3.15761e-08
2.46567e-07
6.61439e-07
1.07822e-06
0
0
0
3.40341e-06
4.77223e-06
6.51684e-06
9.54004e-06
0
0
0
0
0
0
0
0
0
0
0
0
0
0
0
0
0
0
2.82683e-06
2.79343e-06
4.09976e-07
0
0
0
0
0
0
0
0
0
0
0
0
0
0
0
0
0
1.73297e-07
6.40083e-07
9.45234e-07
1.11961e-06
1.22555e-06
1.28509e-06
1.31718e-06
1.36071e-06
1.4895e-06
1.65575e-06
1.85137e-06
2.08404e-06
2.44237e-06
2.92627e-06
3.32053e-06
3.5861e-06
3.87602e-06
4.01347e-06
3.5793e-06
2.04037e-06
0
0
0
0
0
0
0
0
0
0
0
0
0
0
0
7.03637e-07
2.56903e-06
4.09832e-06
4.54278e-06
2.92038e-06
1.14796e-06
7.73953e-07
3.09106e-06
4.41776e-06
0
0
0
0
0
0
5.02318e-06
1.13771e-05
6.19944e-06
0
0
0
0
0
0
0
0
0
6.56093e-07
1.58504e-06
2.33177e-06
2.69584e-06
2.53173e-06
1.74167e-06
3.0863e-07
0
0
1.92425e-06
1.44643e-06
4.54055e-07
0
0
0
0
0
0
0
0
0
0
0
0
0
0
0
0
0
0
0
0
0
0
0
0
0
0
0
0
0
0
0
0
0
0
0
0
0
0
0
0
0
0
0
0
0
0
0
3.82566e-07
4.30136e-07
3.17137e-07
3.84303e-07
1.07594e-06
1.74128e-06
1.15962e-06
7.21364e-09
0
3.67092e-08
5.53811e-07
1.09152e-06
1.66526e-06
2.29442e-06
1.49018e-06
1.86903e-08
0
5.57459e-07
8.93923e-07
2.05878e-06
0
0
0
0
0
0
0
0
0
0
0
0
0
0
0
0
0
0
0
9.94995e-07
5.06266e-07
0
0
0
0
0
0
0
0
0
0
0
0
0
0
0
0
0
0
1.26439e-07
4.46069e-07
7.14146e-07
9.54276e-07
1.16971e-06
1.34515e-06
1.44217e-06
1.44604e-06
1.39457e-06
1.30502e-06
1.2309e-06
1.23932e-06
1.3881e-06
1.69233e-06
2.16991e-06
2.7135e-06
3.30039e-06
3.72198e-06
3.59657e-06
2.65027e-06
9.82325e-07
0
0
0
0
0
0
0
0
0
0
0
0
0
0
0
2.05296e-06
5.10078e-06
5.6492e-06
3.07945e-06
5.78499e-07
0
1.29425e-06
3.11976e-06
0
0
0
0
0
0
3.01685e-06
5.72393e-06
3.28037e-08
0
0
0
0
0
0
0
0
2.38163e-07
1.76167e-06
2.7861e-06
2.9929e-06
2.52428e-06
1.74756e-06
8.4295e-07
1.78487e-07
2.20411e-06
5.55152e-06
2.7853e-06
6.90061e-07
0
0
0
0
0
0
0
0
0
0
0
0
0
0
0
0
0
0
0
0
0
0
0
0
0
0
0
0
0
0
0
0
0
0
0
0
0
0
0
0
0
0
0
0
0
0
0
0
3.25433e-07
4.08114e-07
3.57796e-07
3.49282e-07
7.69634e-07
1.42963e-06
1.04574e-06
0
0
0
9.63257e-07
2.18383e-06
2.99974e-06
3.31801e-06
1.51222e-06
0
0
1.28212e-07
2.72583e-07
9.2229e-07
0
0
0
0
0
0
0
0
0
0
0
0
0
0
0
0
0
0
0
0
0
0
0
0
0
0
0
0
0
0
0
0
0
0
0
0
0
0
1.94573e-07
3.9208e-07
5.90329e-07
8.72762e-07
1.24274e-06
1.64609e-06
1.97352e-06
2.10813e-06
2.02559e-06
1.81139e-06
1.5302e-06
1.28428e-06
1.06911e-06
9.37516e-07
8.6643e-07
9.19986e-07
1.11694e-06
1.55688e-06
2.33066e-06
3.0323e-06
3.17804e-06
2.63318e-06
1.56125e-06
0
0
0
0
0
0
0
0
0
0
0
0
0
0
1.88921e-06
6.61012e-06
7.10298e-06
3.80839e-06
8.93255e-07
0
4.78617e-07
0
0
0
0
0
0
0
2.17176e-06
2.09822e-06
0
0
0
0
0
0
0
0
0
1.27426e-06
2.60506e-06
2.93429e-06
2.78327e-06
2.31491e-06
1.8651e-06
2.26763e-06
3.68946e-06
3.78439e-06
2.23717e-06
2.26863e-07
0
0
0
0
0
0
0
0
0
0
0
0
0
0
0
0
0
0
0
0
0
0
0
0
0
0
0
0
0
0
0
0
0
0
0
0
0
0
0
0
0
0
0
0
0
0
0
0
0
0
3.30952e-07
3.9979e-07
3.87288e-07
6.82303e-07
1.06363e-06
9.87547e-07
1.59438e-08
0
1.91186e-08
2.51526e-06
4.84755e-06
5.34008e-06
5.03076e-06
3.49306e-06
0
0
5.93016e-08
1.41475e-07
4.68906e-07
0
0
0
0
0
0
0
0
0
0
0
0
0
0
0
0
0
0
0
0
0
0
0
0
0
0
0
0
0
0
0
0
0
0
0
8.47531e-07
1.55228e-06
1.54349e-06
5.76845e-07
0
0
0
0
0
5.65474e-07
1.58016e-06
2.19932e-06
2.29231e-06
2.06301e-06
1.65811e-06
1.28535e-06
1.02972e-06
8.34416e-07
7.1268e-07
6.40035e-07
6.46788e-07
7.59581e-07
9.6829e-07
1.21946e-06
1.4546e-06
1.60339e-06
1.54626e-06
1.00742e-06
0
0
0
0
0
0
0
0
0
0
0
0
1.29437e-06
1.05387e-05
8.14508e-06
3.82952e-06
8.65829e-07
0
0
0
0
0
0
0
0
0
1.4178e-06
0
0
0
0
0
0
0
0
0
0
1.43078e-06
2.5185e-06
2.88654e-06
2.7483e-06
2.06457e-06
1.29475e-06
1.68967e-06
1.41883e-06
0
0
2.97562e-07
4.75744e-07
0
0
0
0
0
0
0
0
0
0
0
0
0
0
0
0
0
0
0
0
0
0
0
0
0
0
0
0
0
0
0
0
0
0
0
0
0
0
9.9641e-08
0
0
0
0
0
0
0
0
0
0
1.89778e-07
4.1831e-07
4.49382e-07
7.19705e-07
9.67663e-07
6.4442e-07
0
0
1.18839e-06
4.73494e-06
5.95395e-06
5.57681e-06
4.61199e-06
1.76536e-06
2.12381e-06
0
3.82133e-08
7.71262e-08
2.27533e-07
0
0
0
0
0
0
0
0
0
0
0
0
0
0
0
0
1.73584e-06
0
0
0
0
0
0
0
0
0
0
0
0
0
0
0
4.28501e-07
2.23929e-06
4.39384e-06
6.09728e-06
6.20032e-06
3.0931e-06
0
0
0
0
0
0
0
0
0
5.08872e-07
1.55952e-06
1.71496e-06
1.54724e-06
1.23075e-06
9.51441e-07
7.43986e-07
6.03151e-07
4.97394e-07
4.20577e-07
3.804e-07
3.69569e-07
3.75972e-07
3.90291e-07
4.44824e-07
5.84071e-07
7.34154e-07
6.19249e-07
0
0
0
0
0
0
0
0
1.20528e-06
1.04432e-06
2.46657e-07
7.89125e-06
1.01346e-05
3.26236e-06
4.51535e-07
0
0
0
0
0
0
0
0
0
4.59431e-07
0
0
0
0
0
0
0
0
0
0
1.17703e-06
2.43147e-06
2.81682e-06
2.28372e-06
5.57312e-07
0
0
0
0
0
0
7.55628e-06
3.68142e-06
1.45527e-07
0
0
0
0
0
0
0
0
0
0
0
0
0
0
0
0
0
0
0
0
0
0
0
0
0
0
0
0
0
0
0
0
0
0
0
3.57365e-07
6.06006e-07
0
0
0
0
0
0
0
0
0
0
0
2.80964e-07
5.95687e-07
9.11853e-07
1.03204e-06
5.93669e-07
0
0
2.40913e-06
5.13819e-06
5.88613e-06
5.4692e-06
3.54972e-06
0
1.01938e-05
5.79004e-06
2.95249e-08
4.12498e-08
7.12852e-08
0
0
0
0
0
0
0
0
0
0
0
0
0
0
0
0
3.67376e-06
2.68711e-06
0
0
0
0
0
0
0
0
0
0
0
0
0
1.58005e-06
4.00691e-06
5.91307e-06
7.19019e-06
7.49353e-06
6.19037e-06
2.72709e-06
0
0
0
0
0
0
0
0
0
0
0
3.81887e-07
1.25294e-06
1.32761e-06
1.10518e-06
8.32275e-07
6.20448e-07
4.80588e-07
3.86222e-07
3.17544e-07
2.68424e-07
2.27377e-07
1.92197e-07
1.58722e-07
1.16798e-07
4.13754e-08
0
0
2.80957e-07
3.40137e-07
0
0
0
0
0
5.99957e-06
2.14256e-06
3.91238e-07
1.86192e-06
7.68419e-06
1.96793e-06
0
0
0
0
0
0
3.51848e-07
0
0
1.72174e-07
0
0
0
0
0
0
0
0
0
0
0
8.06841e-07
2.26951e-06
2.46585e-06
1.23808e-06
0
0
0
0
0
0
0
0
6.00543e-06
2.7176e-06
0
0
0
0
0
0
0
0
0
0
0
0
0
0
0
0
0
0
0
0
0
0
0
0
0
0
0
0
0
0
0
0
0
0
1.41808e-06
2.81955e-06
2.00527e-06
7.21692e-07
2.44579e-07
0
0
0
0
0
0
0
0
0
0
6.76763e-07
1.19213e-06
1.27687e-06
7.83266e-07
2.05791e-07
6.93811e-07
2.71791e-06
4.80694e-06
5.33909e-06
4.06023e-06
3.17157e-07
0
5.80119e-06
7.70647e-06
0
0
0
7.32702e-07
1.36047e-06
1.46889e-06
8.45589e-07
0
0
0
0
0
0
0
0
0
0
0
0
0
6.8392e-06
0
0
0
0
0
0
0
0
0
0
0
0
1.67996e-06
3.89508e-06
5.6826e-06
7.53644e-06
9.35003e-06
1.0469e-05
9.92148e-06
8.02531e-06
5.94733e-06
4.32641e-06
3.30075e-06
2.74454e-06
2.36828e-06
1.78424e-06
5.04129e-07
0
0
0
0
0
0
1.02834e-06
1.1754e-06
9.36625e-07
6.55505e-07
4.51464e-07
3.29757e-07
2.59808e-07
2.18787e-07
1.94343e-07
1.71398e-07
1.42722e-07
1.06048e-07
5.52299e-08
0
0
0
3.55033e-08
2.78674e-07
0
0
0
6.86059e-07
8.62905e-06
1.14158e-06
6.1466e-08
6.68014e-07
1.81402e-06
1.79872e-07
0
0
0
0
0
0
1.84217e-06
1.20703e-06
1.10694e-06
9.17839e-07
0
0
0
0
0
0
0
0
0
0
0
2.5348e-07
1.93745e-06
1.87908e-06
1.10606e-07
0
0
0
0
0
0
0
0
0
7.02649e-06
3.47813e-06
0
0
0
0
0
0
0
0
0
0
0
0
0
0
0
0
0
0
0
0
0
0
0
0
0
0
0
0
0
0
0
0
0
0
0
1.16262e-06
2.01278e-06
3.43357e-06
2.93127e-06
5.79612e-07
0
0
0
0
0
0
0
0
5.5352e-07
1.35046e-06
1.61071e-06
1.15153e-06
7.71774e-07
1.39112e-06
2.92449e-06
4.3145e-06
4.29916e-06
2.02656e-06
0
0
1.05241e-06
4.89921e-06
0
0
0
7.55113e-07
1.60813e-06
2.23512e-06
2.51828e-06
2.07503e-06
1.07882e-06
1.98578e-08
0
0
0
0
0
0
0
0
0
0
2.51378e-06
2.9473e-06
0
0
0
0
0
0
0
0
0
0
2.55443e-06
5.5378e-06
8.0267e-06
1.05632e-05
1.33896e-05
1.59416e-05
1.65198e-05
1.35979e-05
8.49017e-06
3.72602e-06
5.89921e-07
0
0
3.99274e-07
2.14375e-06
3.57524e-06
3.77616e-06
2.1198e-06
0
0
0
0
1.91771e-07
1.12494e-06
1.07614e-06
7.72369e-07
5.02037e-07
3.26814e-07
2.33435e-07
1.87387e-07
1.61096e-07
1.34787e-07
1.09898e-07
9.06549e-08
7.16525e-08
3.0536e-08
0
0
0
0
5.17807e-08
0
0
0
7.25312e-06
2.01925e-06
1.09393e-07
1.99329e-07
0
0
0
0
0
0
0
0
2.53219e-06
2.37274e-06
2.393e-06
1.68984e-06
0
0
0
3.81046e-07
0
0
0
0
0
0
0
0
1.45246e-06
1.35604e-06
0
0
0
0
0
0
0
0
0
0
0
8.09337e-06
3.23832e-06
0
0
0
0
0
0
0
0
0
0
0
0
0
0
0
0
0
0
0
0
0
0
0
0
0
0
0
0
0
0
0
0
0
0
0
0
9.27322e-06
6.47124e-06
0
0
0
0
0
0
0
0
0
0
1.53436e-06
1.75431e-06
1.57175e-06
1.36625e-06
1.90713e-06
3.02117e-06
3.90817e-06
3.32055e-06
2.52194e-07
0
0
0
2.15864e-06
0
0
0
6.77512e-07
1.44339e-06
1.93722e-06
2.53933e-06
2.84215e-06
2.52622e-06
1.842e-06
1.02773e-06
2.63314e-07
0
0
0
0
0
0
0
0
5.96473e-07
1.26001e-06
0
0
0
0
0
0
0
0
9.12866e-07
4.30254e-06
8.19831e-06
1.11136e-05
1.38286e-05
1.72682e-05
2.21506e-05
2.81835e-05
2.91961e-05
9.88275e-06
0
0
0
0
0
0
0
0
1.64737e-06
3.21288e-06
2.16313e-06
0
0
0
0
1.07906e-06
1.15612e-06
8.35879e-07
5.44861e-07
3.50648e-07
2.33413e-07
1.70462e-07
1.43588e-07
1.25745e-07
9.28776e-08
3.89866e-08
0
7.33045e-09
7.59507e-09
0
0
0
0
1.57517e-07
3.05474e-07
5.49127e-07
6.02049e-06
4.97507e-06
6.51603e-07
1.78096e-07
0
0
0
0
0
0
0
0
2.75989e-06
3.15789e-06
3.32542e-06
2.27848e-06
6.41657e-07
0
0
5.16682e-07
0
0
0
0
0
0
0
0
7.70881e-07
1.15778e-06
0
0
0
0
0
0
0
0
0
0
0
0
9.30909e-08
5.45934e-07
0
0
0
0
0
0
0
0
0
0
0
0
0
0
0
0
0
0
0
0
0
0
0
0
0
0
0
0
0
0
0
0
0
0
0
0
0
0
0
0
0
0
0
0
7.22972e-07
1.25048e-06
1.0719e-06
1.66623e-06
1.98466e-06
1.78254e-06
1.91602e-06
2.36192e-06
3.08138e-06
3.62766e-06
2.64172e-06
0
0
0
0
0
0
0
0
0
8.06736e-07
1.13825e-06
1.67074e-06
2.14393e-06
2.24685e-06
1.94712e-06
1.4424e-06
8.68548e-07
3.49491e-07
7.24493e-09
0
0
0
9.87744e-08
3.26957e-07
6.63791e-07
1.05901e-06
1.13757e-06
0
0
0
0
0
0
0
1.27014e-06
4.34553e-06
7.96122e-06
1.03896e-05
1.19899e-05
1.35772e-05
1.56237e-05
1.74197e-05
1.00046e-05
0
0
0
0
0
0
0
0
0
0
0
1.21513e-06
1.99798e-06
5.16154e-07
0
0
0
1.26865e-06
1.21988e-06
7.95941e-07
4.87499e-07
3.13248e-07
2.15034e-07
1.57898e-07
1.26257e-07
1.16741e-07
1.04688e-07
6.14948e-08
0
0
0
0
0
0
0
0
2.04906e-07
5.93659e-07
4.65916e-06
8.95933e-06
1.56001e-06
3.82159e-07
0
0
0
0
0
0
0
0
2.69295e-06
3.56819e-06
3.75683e-06
2.60696e-06
1.02545e-06
0
0
2.25296e-07
0
0
0
0
0
0
0
0
0
1.46578e-06
9.66202e-07
0
0
0
0
0
0
0
0
0
0
0
0
0
0
0
0
0
0
0
0
0
0
0
0
0
0
0
0
0
0
0
0
0
0
0
0
0
0
0
0
0
0
0
0
0
0
0
0
0
0
0
0
0
0
0
0
0
8.47525e-07
1.95305e-06
2.31114e-06
2.55485e-06
2.53915e-06
2.04616e-06
2.1905e-06
2.75403e-06
3.2678e-06
3.45681e-06
2.11827e-06
0
0
0
0
0
0
0
0
0
4.48053e-07
6.49117e-07
1.16208e-06
1.65574e-06
1.83508e-06
1.54024e-06
9.76815e-07
3.74248e-07
0
0
0
0
5.50098e-08
4.65875e-07
9.30151e-07
1.41457e-06
1.79895e-06
1.79065e-06
1.1616e-06
3.66015e-07
0
0
0
2.26454e-07
5.49144e-07
1.20212e-06
2.18592e-06
3.00694e-06
3.43557e-06
3.35467e-06
2.46093e-06
0
0
0
0
0
0
0
0
0
0
0
0
0
0
5.42894e-07
1.56057e-06
2.78706e-07
0
0
0
1.34921e-06
1.13684e-06
6.04716e-07
3.05202e-07
1.83207e-07
1.34794e-07
1.13129e-07
9.98894e-08
9.22728e-08
9.17012e-08
8.33919e-08
2.77579e-08
0
0
0
0
0
0
0
0
2.6238e-07
3.64281e-06
1.24689e-05
2.68847e-06
5.79705e-07
0
0
0
0
0
0
0
0
2.49528e-06
3.72372e-06
3.77066e-06
2.60072e-06
6.39377e-07
0
0
0
0
0
0
0
0
0
0
0
0
2.27325e-06
3.79454e-06
4.46209e-07
0
0
0
0
0
0
0
0
0
0
0
0
0
0
0
0
0
0
0
0
0
0
0
0
0
0
0
0
0
0
0
0
0
0
0
0
0
0
0
0
0
0
0
0
0
0
0
0
0
0
0
0
0
0
0
0
5.13933e-07
1.93053e-06
2.68706e-06
2.85494e-06
3.12414e-06
2.66099e-06
2.35062e-06
2.95634e-06
3.53177e-06
3.39921e-06
1.53281e-06
0
0
0
0
0
0
0
0
0
5.6334e-07
8.07977e-07
1.363e-06
1.92776e-06
2.17463e-06
1.79681e-06
8.68931e-07
0
0
0
0
0
0
4.65073e-07
1.10725e-06
1.68286e-06
2.08633e-06
2.19082e-06
2.0241e-06
1.78563e-06
1.56245e-06
1.43578e-06
1.27114e-06
6.24232e-07
0
0
0
0
0
0
0
0
0
0
0
0
0
0
0
0
0
0
0
0
0
1.278e-06
2.05337e-06
5.24157e-07
0
0
0
1.32424e-06
8.45018e-07
3.25806e-07
1.15529e-07
5.59771e-08
4.28097e-08
4.25564e-08
5.13281e-08
6.3689e-08
7.13801e-08
7.64561e-08
5.99159e-08
0
0
0
0
0
0
0
0
0
2.99503e-06
1.46064e-05
3.95809e-06
7.34372e-07
0
0
0
0
0
0
0
0
2.36047e-06
3.83163e-06
3.78691e-06
2.45602e-06
0
0
0
0
0
0
0
0
0
0
0
0
0
1.95231e-06
7.92716e-06
6.34918e-06
0
0
0
0
0
0
0
0
0
0
0
0
0
0
0
0
0
0
0
0
0
0
0
0
0
0
0
0
0
0
0
0
0
0
0
0
0
0
0
0
0
0
0
0
0
0
0
0
0
0
0
0
0
0
0
0
2.1024e-07
1.46156e-06
2.70059e-06
3.00268e-06
3.03608e-06
3.19997e-06
2.77616e-06
2.97376e-06
3.79705e-06
3.3755e-06
8.2931e-07
0
0
0
0
0
0
0
0
0
3.53186e-07
6.0852e-07
1.17065e-06
1.92271e-06
2.3996e-06
2.15638e-06
1.104e-06
0
0
0
0
0
1.61083e-07
8.09281e-07
1.40618e-06
1.9146e-06
2.29368e-06
2.50135e-06
2.56447e-06
2.50886e-06
2.30722e-06
2.05181e-06
1.44946e-06
5.51396e-07
0
0
0
0
0
0
0
0
0
0
0
0
0
0
0
0
0
0
0
0
0
1.95493e-06
2.23796e-06
8.47037e-07
0
0
8.07569e-07
1.19192e-06
5.09261e-07
1.3204e-07
2.87699e-08
1.88543e-08
2.25702e-08
2.08533e-08
1.80326e-08
2.70698e-08
4.42415e-08
5.30811e-08
5.10353e-08
3.17074e-09
0
0
0
0
0
0
0
0
1.86846e-06
1.42633e-05
4.85453e-06
8.11994e-07
0
0
0
0
0
0
0
0
2.22052e-06
3.77034e-06
3.70754e-06
2.22037e-06
0
0
0
0
0
0
0
0
0
0
0
0
0
0
8.55147e-06
1.28148e-05
5.13389e-06
0
0
0
0
0
0
0
0
0
0
0
0
0
0
0
0
0
0
0
0
0
0
0
0
0
0
0
0
0
0
0
0
0
0
0
0
0
0
0
0
0
0
0
0
0
0
0
0
0
0
0
0
0
0
0
3.00397e-07
1.21665e-06
2.50413e-06
3.06677e-06
3.00067e-06
3.07632e-06
3.13026e-06
3.19347e-06
3.95184e-06
3.35678e-06
1.21121e-07
0
0
0
0
0
0
0
0
0
1.12736e-07
3.06905e-07
6.68139e-07
1.41028e-06
2.06171e-06
2.08239e-06
1.21051e-06
6.62765e-08
0
0
5.61707e-08
5.75159e-07
1.10277e-06
1.60263e-06
2.05182e-06
2.42389e-06
2.70034e-06
2.84519e-06
2.85428e-06
2.71043e-06
2.46323e-06
2.09503e-06
1.48618e-06
7.96986e-07
2.38059e-07
0
0
0
0
0
0
0
0
0
0
0
0
0
0
0
0
0
0
0
1.00621e-06
2.3501e-06
1.80128e-06
8.35031e-07
6.46522e-09
4.00274e-07
1.5283e-06
9.36381e-07
2.8577e-07
4.57107e-08
2.16047e-09
1.32806e-08
2.57419e-08
2.63185e-08
1.69386e-08
1.20437e-08
2.21061e-08
3.19426e-08
3.03699e-08
4.07716e-09
0
0
0
0
0
0
0
0
7.51556e-07
1.11413e-05
5.39216e-06
9.08162e-07
0
0
0
0
0
0
0
0
2.08438e-06
3.70832e-06
3.65955e-06
2.11344e-06
0
0
0
0
0
0
0
0
0
0
0
0
0
0
2.12896e-06
1.14891e-05
9.88724e-06
7.99605e-07
0
0
0
0
0
0
0
0
0
0
0
0
0
0
0
0
0
0
0
0
0
0
0
0
0
0
0
0
0
0
0
0
0
0
0
0
0
0
0
0
0
0
0
0
0
0
0
0
0
0
0
0
0
2.96918e-07
1.28104e-06
1.78496e-06
2.4892e-06
3.1654e-06
3.15322e-06
3.03107e-06
3.10408e-06
3.38088e-06
4.11017e-06
3.55302e-06
0
0
0
0
0
0
0
0
0
0
0
0
1.24785e-07
7.38132e-07
1.43517e-06
1.58438e-06
9.96111e-07
4.69355e-07
4.51918e-07
6.77747e-07
9.55886e-07
1.25031e-06
1.55984e-06
1.87926e-06
2.18346e-06
2.43712e-06
2.60794e-06
2.66537e-06
2.60041e-06
2.43784e-06
2.2329e-06
1.87848e-06
1.43513e-06
9.56809e-07
6.34119e-07
4.57197e-07
2.11803e-07
0
0
0
0
0
0
0
0
0
0
0
0
0
0
0
1.14016e-07
1.57616e-06
2.44496e-06
2.0201e-06
1.31085e-06
1.11933e-06
1.24985e-06
1.78664e-06
1.52577e-06
6.41725e-07
2.01202e-07
5.98582e-08
2.75228e-08
2.72756e-08
3.15923e-08
3.0637e-08
2.20327e-08
1.27844e-08
1.53651e-08
2.38264e-08
2.2899e-08
2.75017e-09
0
0
0
0
0
0
0
0
0
6.85471e-06
5.36511e-06
9.578e-07
0
0
0
0
0
0
0
0
1.77607e-06
3.44216e-06
3.44994e-06
2.02547e-06
0
0
0
0
0
0
0
0
0
0
0
0
0
0
0
2.59848e-06
7.39623e-06
3.6836e-06
0
0
8.1331e-07
1.26005e-06
1.70901e-06
1.5957e-06
3.61557e-07
0
0
0
0
0
0
0
0
0
0
0
0
0
0
0
0
0
0
0
0
0
0
0
0
0
0
0
0
0
0
0
0
0
0
0
0
0
0
0
0
0
0
0
0
0
0
1.29902e-06
3.30605e-06
3.67311e-06
3.46294e-06
3.46298e-06
3.39578e-06
3.14545e-06
3.06437e-06
3.06992e-06
4.06661e-06
4.10295e-06
1.90383e-07
0
0
0
0
0
0
0
0
0
0
0
0
7.96131e-08
7.62267e-07
8.0586e-07
5.18222e-07
1.00871e-06
1.3524e-06
1.39705e-06
1.35016e-06
1.37281e-06
1.50035e-06
1.69379e-06
1.87738e-06
2.00984e-06
2.07498e-06
2.06408e-06
1.97798e-06
1.86018e-06
1.70445e-06
1.45364e-06
1.15869e-06
8.43754e-07
6.38819e-07
5.8508e-07
5.16121e-07
3.26224e-07
0
0
0
0
0
0
0
0
0
0
0
0
0
2.17471e-06
2.06142e-06
2.20292e-06
1.95672e-06
1.22393e-06
1.05692e-06
1.93106e-06
2.52766e-06
2.38438e-06
1.29748e-06
5.06699e-07
2.01262e-07
9.90825e-08
6.72921e-08
5.71367e-08
4.90784e-08
3.93528e-08
2.85886e-08
1.87206e-08
1.93787e-08
2.71641e-08
3.02463e-08
1.70108e-08
0
0
0
0
0
0
0
0
0
2.99537e-06
4.67931e-06
8.54061e-07
0
0
0
0
0
0
0
0
1.3324e-06
2.99534e-06
3.07582e-06
1.92049e-06
0
0
0
0
0
0
0
0
0
0
0
0
0
0
0
0
7.97016e-07
3.18871e-06
1.86048e-06
1.83065e-06
2.791e-06
3.97463e-06
5.47429e-06
6.9958e-06
7.62609e-06
5.10485e-06
0
0
0
0
0
0
0
0
0
0
0
0
0
0
0
0
0
0
0
0
0
0
0
0
0
0
0
0
0
0
0
0
0
0
0
0
0
0
0
0
0
0
0
0
0
1.09344e-06
5.53041e-06
6.71552e-06
5.81771e-06
4.57088e-06
3.82049e-06
3.30944e-06
3.05007e-06
2.83418e-06
3.0227e-06
4.29199e-06
2.08775e-06
0
0
0
0
0
0
0
0
0
0
0
0
0
0
0
0
1.00501e-06
1.35813e-06
1.26515e-06
9.9428e-07
8.37284e-07
8.93011e-07
1.05541e-06
1.18371e-06
1.24793e-06
1.27766e-06
1.2822e-06
1.24808e-06
1.19262e-06
1.09933e-06
9.51905e-07
7.62126e-07
5.51694e-07
3.90904e-07
3.40172e-07
3.37417e-07
3.07787e-07
2.20394e-07
8.53704e-08
0
0
0
0
0
0
0
0
0
1.46088e-06
1.92095e-07
0
0
7.84257e-07
9.67089e-07
6.88812e-07
1.58792e-06
3.2521e-06
3.24093e-06
2.06834e-06
8.78124e-07
3.80358e-07
1.98869e-07
1.27611e-07
9.8368e-08
8.2891e-08
6.84176e-08
5.32689e-08
4.09869e-08
3.35635e-08
3.72904e-08
4.74117e-08
5.13814e-08
4.67997e-08
1.16675e-08
0
0
0
0
0
0
0
0
1.70056e-07
3.26544e-06
6.1301e-07
0
0
0
0
0
0
0
0
8.47825e-07
2.43486e-06
2.5919e-06
1.76598e-06
1.39681e-07
0
0
0
0
0
0
0
0
0
0
0
0
0
0
0
0
0
2.0177e-06
3.75636e-06
4.62894e-06
5.63757e-06
7.38257e-06
1.00202e-05
1.34382e-05
1.646e-05
1.39347e-05
2.09011e-06
0
0
0
0
0
0
0
0
0
0
0
0
0
0
0
0
0
0
0
0
0
0
0
0
0
0
0
0
0
0
0
0
0
0
0
0
0
0
0
0
0
0
0
6.20142e-08
5.61466e-06
1.00677e-05
9.37594e-06
6.87548e-06
4.7553e-06
3.61498e-06
3.03912e-06
2.69585e-06
2.20707e-06
2.65964e-06
3.41064e-06
1.92853e-06
0
0
0
0
0
0
0
0
0
0
0
0
0
0
0
3.26888e-07
8.28143e-07
7.72864e-07
4.00816e-07
1.92876e-07
3.26537e-07
5.49427e-07
6.26235e-07
5.93658e-07
5.65442e-07
5.53728e-07
5.23082e-07
4.71704e-07
4.08001e-07
3.31086e-07
2.34415e-07
1.2424e-07
3.76235e-08
6.86017e-09
2.61926e-08
7.37575e-08
1.32282e-07
2.05286e-07
3.13991e-07
4.66887e-07
6.53367e-07
9.17269e-07
1.30199e-06
1.95973e-06
3.07491e-06
4.78839e-06
7.1647e-06
1.82881e-06
0
0
0
1.15648e-07
3.36697e-07
6.19985e-07
3.35898e-06
4.25448e-06
3.08258e-06
1.44403e-06
6.17027e-07
3.12163e-07
1.96435e-07
1.47986e-07
1.22308e-07
1.01716e-07
8.13211e-08
6.22408e-08
4.95909e-08
4.66232e-08
5.63584e-08
7.28732e-08
7.77382e-08
7.80647e-08
6.39494e-08
2.75837e-08
1.28605e-08
1.99073e-08
0
0
0
0
0
0
1.1612e-06
3.72318e-07
0
0
0
0
0
0
0
0
4.23074e-07
1.82103e-06
2.03445e-06
1.50494e-06
1.32682e-06
3.39124e-06
0
0
0
0
0
0
0
0
0
0
0
7.70467e-07
1.45604e-06
0
0
0
0
2.22294e-06
6.80307e-06
7.88215e-06
7.68886e-06
7.94697e-06
8.84035e-06
9.81372e-06
1.12246e-05
1.2919e-05
1.66806e-06
0
0
0
0
0
0
0
0
0
0
0
0
0
0
0
0
0
0
0
0
0
2.56093e-07
3.60342e-07
3.44277e-07
4.28822e-07
0
0
0
0
0
0
0
0
0
0
0
0
0
0
0
0
0
8.60846e-07
5.24414e-06
1.13677e-05
1.30381e-05
1.00722e-05
6.53794e-06
4.27699e-06
3.1638e-06
2.58673e-06
1.91753e-06
1.42804e-06
2.28811e-06
2.81975e-06
1.89844e-06
4.71427e-07
0
0
0
0
0
0
0
5.09288e-07
5.58311e-07
0
0
0
0
0
5.59427e-08
1.91897e-07
0
0
0
0
0
0
0
0
0
0
0
0
0
0
0
0
0
0
0
2.00273e-07
5.17453e-07
9.24461e-07
1.44311e-06
2.12858e-06
3.02784e-06
4.28483e-06
5.75219e-06
6.89369e-06
4.94205e-06
0
0
0
0
0
0
2.43841e-06
5.60585e-06
4.21269e-06
2.0763e-06
9.09855e-07
4.56442e-07
2.77584e-07
2.09289e-07
1.7791e-07
1.5337e-07
1.28743e-07
1.02912e-07
8.08121e-08
6.56914e-08
6.26204e-08
7.34033e-08
9.30718e-08
9.91181e-08
9.95691e-08
1.02591e-07
7.84161e-08
4.76587e-08
4.81268e-08
6.74948e-09
0
0
0
0
0
0
1.16229e-07
0
0
0
0
0
0
1.08893e-07
0
1.27725e-07
1.20973e-06
1.42394e-06
1.09177e-06
2.0419e-06
9.38056e-06
2.18958e-05
1.69819e-05
0
0
0
0
0
0
0
0
0
2.81853e-08
2.30766e-06
1.14019e-06
0
0
0
0
2.02494e-06
1.11978e-05
1.21737e-05
8.96708e-06
7.11372e-06
6.39266e-06
6.45897e-06
7.5591e-06
6.57867e-06
0
0
0
0
0
0
0
0
0
0
0
0
0
0
0
0
0
0
0
0
1.15554e-07
3.84807e-07
4.64405e-07
5.57232e-07
4.10703e-07
0
0
0
0
0
0
0
0
0
0
0
0
0
0
0
0
0
3.45612e-06
6.40269e-06
1.17325e-05
1.59745e-05
1.35299e-05
8.86513e-06
5.30628e-06
3.50719e-06
2.58614e-06
1.84081e-06
1.00047e-06
1.04012e-06
1.89712e-06
2.0787e-06
1.63066e-06
1.39089e-06
1.63044e-06
0
0
9.61147e-07
3.97727e-06
4.23538e-06
3.7153e-06
2.70208e-06
1.46961e-06
3.1227e-07
0
0
0
0
0
0
0
0
0
0
0
0
0
0
0
0
0
0
0
0
0
0
0
0
1.60063e-08
4.70539e-07
1.06691e-06
1.83004e-06
2.759e-06
3.87929e-06
5.12583e-06
5.95308e-06
5.34871e-06
1.75076e-06
0
0
0
0
0
4.07467e-07
7.55059e-06
5.95447e-06
2.80547e-06
1.2557e-06
6.38486e-07
3.66674e-07
2.56617e-07
2.20534e-07
1.96879e-07
1.67242e-07
1.41187e-07
1.21808e-07
1.03581e-07
8.86533e-08
8.42008e-08
9.32334e-08
1.10589e-07
1.17361e-07
1.14102e-07
1.2238e-07
1.15664e-07
8.50855e-08
7.25789e-08
3.60626e-08
0
0
0
0
0
0
0
0
0
0
0
0
0
2.37992e-07
0
0
6.54389e-07
7.95141e-07
5.32438e-07
2.07362e-06
1.07766e-05
2.40896e-05
3.4853e-05
3.39406e-05
2.266e-05
1.47609e-05
9.67865e-06
5.80488e-06
3.37419e-06
1.43097e-06
0
0
0
1.07884e-06
2.06047e-06
0
0
0
0
0
0
1.46588e-05
1.83224e-05
1.18727e-05
8.48092e-06
7.53496e-06
7.698e-06
5.23885e-06
0
0
0
0
0
0
0
0
0
0
0
0
0
0
0
0
0
0
0
0
2.12241e-07
4.08271e-07
4.99174e-07
6.65669e-07
3.39647e-07
0
0
0
0
0
0
0
0
0
0
0
0
0
0
0
0
0
5.41491e-06
8.14432e-06
1.17904e-05
1.77286e-05
1.66334e-05
1.15516e-05
6.95555e-06
4.23687e-06
2.78069e-06
1.85737e-06
8.99599e-07
4.38329e-07
8.23811e-07
1.38024e-06
1.64678e-06
1.95417e-06
2.45766e-06
3.14643e-06
1.02403e-06
4.05629e-07
6.13678e-07
9.31721e-07
9.15219e-07
4.82812e-07
0
0
0
0
0
0
0
0
0
0
0
0
0
0
0
0
0
0
0
0
0
0
0
0
0
0
0
3.10784e-07
1.00402e-06
1.88249e-06
2.93995e-06
4.13761e-06
5.11666e-06
5.23742e-06
3.74465e-06
1.33879e-07
0
0
0
0
0
9.83695e-06
9.39478e-06
3.73583e-06
1.57177e-06
8.18956e-07
4.67888e-07
3.07755e-07
2.52623e-07
2.35067e-07
2.10334e-07
1.79412e-07
1.55152e-07
1.39321e-07
1.25353e-07
1.11632e-07
1.05153e-07
1.1008e-07
1.23828e-07
1.3146e-07
1.24259e-07
1.28597e-07
1.37123e-07
1.13052e-07
8.938e-08
6.17864e-08
5.27059e-09
0
0
0
0
0
0
0
0
0
0
0
0
3.47394e-07
2.75665e-07
0
1.89659e-07
1.78553e-07
0
1.51031e-06
9.3456e-06
1.83821e-05
2.69842e-05
3.58047e-05
3.8915e-05
3.47014e-05
2.79833e-05
2.07624e-05
1.411e-05
8.50067e-06