/*--------------------------------*- C++ -*----------------------------------*\
  =========                 |
  \\      /  F ield         | OpenFOAM: The Open Source CFD Toolbox
   \\    /   O peration     | Website:  https://openfoam.org
    \\  /    A nd           | Version:  6
     \\/     M anipulation  |
\*---------------------------------------------------------------------------*/
FoamFile
{
    version     2.0;
    format      ascii;
    class       volScalarField;
    location    "0.5";
    object      p;
}
// * * * * * * * * * * * * * * * * * * * * * * * * * * * * * * * * * * * * * //

dimensions      [0 2 -2 0 0 0 0];

internalField   nonuniform List<scalar> 
12225
(
-30.0116
-34.8145
-38.6558
-41.7759
-44.4178
-46.5949
-48.3599
-49.7705
-50.9104
-51.8593
-52.6725
-53.378
-53.9733
-54.44
-54.7874
-55.0171
-55.1779
-55.3095
-30.9728
-34.8939
-38.6882
-41.7776
-44.4191
-46.604
-48.3759
-49.7938
-50.94
-51.8901
-52.6979
-53.3953
-53.9838
-54.4504
-54.7962
-55.0405
-55.2093
-55.3632
-30.3813
-34.9098
-38.7306
-41.8659
-44.4855
-46.643
-48.4063
-49.8297
-50.9871
-51.9456
-52.7543
-53.4431
-54.0185
-54.4729
-54.8133
-55.0647
-55.2502
-55.443
-31.0595
-35.0007
-38.7573
-41.9286
-44.5719
-46.7326
-48.482
-49.8943
-51.0514
-52.0111
-52.812
-53.4839
-54.0416
-54.4867
-54.8297
-55.094
-55.3096
-55.5355
-31.1586
-35.0814
-38.8365
-42.0109
-44.6483
-46.8196
-48.5818
-50.0028
-51.1609
-52.1107
-52.8949
-53.551
-54.0987
-54.5414
-54.8874
-55.1587
-55.3864
-55.6102
-31.2802
-35.1005
-39.0323
-42.2205
-44.8251
-46.9705
-48.7071
-50.1142
-51.2729
-52.2266
-53.0074
-53.6505
-54.18
-54.607
-54.945
-55.2166
-55.448
-55.6625
-30.2902
-35.2053
-39.2421
-42.4346
-45.0468
-47.1964
-48.9124
-50.2888
-51.4218
-52.3583
-53.1267
-53.7578
-54.2757
-54.6939
-55.026
-55.2908
-55.5104
-55.7037
-29.0685
-35.4075
-39.4848
-42.6709
-45.2887
-47.4312
-49.1409
-50.5175
-51.6457
-52.5641
-53.3052
-53.9085
-54.4037
-54.8061
-55.1286
-55.3865
-55.5968
-55.7714
-31.0391
-35.81
-39.9202
-43.0812
-45.675
-47.7822
-49.4502
-50.7881
-51.8861
-52.7835
-53.5086
-54.0954
-54.5709
-54.9517
-55.2525
-55.4887
-55.6766
-55.8275
-33.4083
-36.5234
-40.4298
-43.5772
-46.1508
-48.2075
-49.8172
-51.1115
-52.1809
-53.0551
-53.7574
-54.3209
-54.773
-55.1314
-55.4114
-55.629
-55.7969
-55.9236
-31.1806
-36.8581
-41.0254
-44.149
-46.6763
-48.7089
-50.3015
-51.5656
-52.5887
-53.4096
-54.0623
-54.5858
-55.0067
-55.3403
-55.5986
-55.7946
-55.9394
-56.0398
-33.1779
-37.6256
-41.8126
-44.8884
-47.3534
-49.3026
-50.8167
-52.026
-53.0118
-53.8002
-54.4177
-54.9016
-55.2814
-55.5766
-55.8019
-55.97
-56.0904
-56.1678
-30.7301
-38.3696
-42.7325
-45.7416
-48.1421
-50.0042
-51.4263
-52.5511
-53.4665
-54.2036
-54.7864
-55.2435
-55.5976
-55.8661
-56.0645
-56.2061
-56.3001
-56.3506
-33.6492
-39.9056
-44.0198
-46.9183
-49.1881
-50.9347
-52.2897
-53.3641
-54.2068
-54.8471
-55.3294
-55.7003
-55.9893
-56.2109
-56.373
-56.4824
-56.5465
-56.5714
-37.5767
-42.6183
-46.1776
-48.692
-50.6846
-52.2073
-53.3691
-54.3006
-55.0509
-55.6264
-56.0505
-56.3591
-56.581
-56.7367
-56.8409
-56.9028
-56.9292
-56.9227
-43.9564
-46.3567
-48.9272
-51.0601
-52.8086
-54.1159
-55.0542
-55.7517
-56.278
-56.6692
-56.961
-57.1785
-57.3322
-57.4264
-57.469
-57.4685
-57.4362
-57.3776
-47.5727
-50.8695
-52.85
-54.3851
-55.5701
-56.4501
-57.1075
-57.6158
-57.9847
-58.2131
-58.3297
-58.3715
-58.3652
-58.3283
-58.2724
-58.2025
-58.1202
-58.0286
-58.8667
-57.4793
-57.9967
-58.7966
-59.4699
-59.9256
-60.1297
-60.1871
-60.1755
-60.1124
-60.0129
-59.8916
-59.7514
-59.5923
-59.4179
-59.2339
-59.0443
-58.8523
-55.74
-61.9881
-64.029
-64.7132
-64.6818
-64.3994
-64.0154
-63.5618
-63.0985
-62.6574
-62.2342
-61.8259
-61.441
-61.0862
-60.7596
-60.4578
-60.1773
-59.9169
-78.4659
-75.0514
-73.1056
-71.6004
-70.1512
-68.8707
-67.7613
-66.766
-65.8826
-65.1061
-64.4023
-63.7493
-63.1484
-62.6028
-62.1072
-61.6549
-61.2417
-60.8631
-85.1807
-83.3767
-80.0163
-77.0479
-74.5945
-72.5422
-70.81
-69.3099
-67.9891
-66.8393
-65.8477
-64.988
-64.2383
-63.5814
-62.9992
-62.4751
-61.9997
-61.5665
-101.611
-91.728
-85.7804
-81.4107
-77.9584
-75.1952
-72.9709
-71.1399
-69.5946
-68.2762
-67.1341
-66.1253
-65.2306
-64.4424
-63.7476
-63.1298
-62.5764
-62.0789
-106.864
-97.4899
-89.8708
-84.4751
-80.4374
-77.3022
-74.7816
-72.657
-70.8277
-69.2774
-67.9736
-66.8587
-65.888
-65.0354
-64.2805
-63.6066
-63.0034
-62.4622
-116.787
-101.354
-92.5993
-86.6572
-82.207
-78.7152
-75.9144
-73.6124
-71.6768
-70.0419
-68.6493
-67.4432
-66.3921
-65.4786
-64.6809
-63.9746
-63.3419
-62.7713
-116.673
-102.336
-93.816
-87.8586
-83.3264
-79.7383
-76.8095
-74.3675
-72.3095
-70.5806
-69.1206
-67.8624
-66.7616
-65.7948
-64.9446
-64.1941
-63.5302
-62.941
-111.719
-101.65
-94.187
-88.4911
-83.9991
-80.3737
-77.3677
-74.8494
-72.7285
-70.9372
-69.4144
-68.1056
-66.9729
-65.9895
-65.1307
-64.3735
-63.7003
-63.0975
-108.855
-100.565
-94.2405
-88.8614
-84.4038
-80.7686
-77.7142
-75.1403
-72.9875
-71.1774
-69.6332
-68.2978
-67.1357
-66.1231
-65.2395
-64.4655
-63.7837
-63.179
-103.015
-99.4412
-94.1252
-89.031
-84.6429
-81.0035
-77.9253
-75.3283
-73.1561
-71.3223
-69.7521
-68.3972
-67.2238
-66.2036
-65.3127
-64.5318
-63.8444
-63.2349
-99.6935
-98.5757
-94.0347
-89.1246
-84.7783
-81.1385
-78.0427
-75.424
-73.2348
-71.3871
-69.8038
-68.4381
-67.2567
-66.2312
-65.3384
-64.5589
-63.8754
-63.2687
-98.3676
-98.2187
-93.9623
-89.1272
-84.8091
-81.1776
-78.0813
-75.4605
-73.2729
-71.4274
-69.8423
-68.4697
-67.2776
-66.2404
-65.3388
-64.5554
-63.874
-63.2729
-55.4755
-55.4403
-55.3313
-55.1503
-54.9464
-54.7714
-54.6417
-54.5384
-54.4405
-54.345
-54.2733
-54.2617
-54.3227
-54.4309
-54.5647
-54.7331
-54.9651
-55.2942
-55.7158
-56.1815
-56.5614
-56.7725
-57.0628
-57.7032
-58.5909
-59.4861
-60.3129
-61.074
-61.7551
-62.365
-62.9228
-63.4373
-63.9152
-64.3569
-64.7503
-65.0757
-65.3105
-65.4292
-65.406
-65.2161
-64.8364
-64.2453
-63.4271
-62.3756
-61.0924
-59.5857
-57.8752
-55.9946
-53.9902
-51.9169
-49.8306
-47.7807
-45.805
-43.9265
-42.1551
-40.4907
-38.9271
-37.4556
-36.0681
-34.7558
-33.5094
-32.3202
-31.1791
-30.0784
-29.0126
-27.9794
-26.9794
-26.0152
-25.0865
-24.1871
-23.3064
-22.4328
-21.5576
-20.6791
-19.7967
-18.9139
-18.0408
-17.1898
-16.4153
-15.7285
-15.0871
-14.5098
-13.7466
-12.5371
-11.4089
-11.0881
-11.4664
-11.701
-11.6244
-11.1712
-9.75163
-7.93086
-6.77994
-5.85317
-4.66237
-4.72817
-5.22339
-6.47376
-11.7993
-21.6911
-33.5229
-45.3556
-56.1602
-65.5885
-73.6474
-80.4712
-86.205
-90.9475
-94.7426
-97.5903
-99.4633
-100.311
-100.098
-98.8211
-96.5105
-93.2363
-89.1084
-84.2705
-78.8892
-73.1414
-67.2014
-61.2313
-55.3729
-49.7442
-44.4369
-39.5172
-35.0277
-30.9896
-27.4066
-24.2678
-21.5517
-19.2294
-17.267
-15.6284
-14.2763
-13.1735
-12.2838
-11.5738
-11.0152
-10.5865
-10.2715
-10.0555
-9.92477
-9.86726
-9.87263
-9.93153
-10.0331
-10.1608
-10.288
-10.3768
-10.3818
-10.2657
-10.0207
-9.68468
-9.33209
-9.03876
-8.84707
-8.75913
-8.7491
-8.78233
-8.8281
-8.8644
-8.88382
-8.89081
-8.88624
-8.84421
-8.70989
-8.45234
-8.10949
-7.73838
-7.3555
-6.95673
-6.52418
-6.00871
-5.37703
-4.71014
-4.18615
-3.93951
-3.79774
-3.45311
-55.8111
-55.7739
-55.6484
-55.4449
-55.2464
-55.1052
-55.019
-54.9567
-54.8898
-54.8083
-54.7168
-54.6267
-54.5496
-54.4945
-54.4899
-54.5652
-54.699
-54.9301
-55.363
-55.9839
-56.6655
-57.2758
-57.9216
-58.7783
-59.6578
-60.3974
-61.038
-61.5837
-62.0826
-62.5883
-63.0882
-63.59
-64.0996
-64.5869
-65.0282
-65.406
-65.6928
-65.8591
-65.8769
-65.7182
-65.3579
-64.7782
-63.9664
-62.9135
-61.6172
-60.0887
-58.3537
-56.4508
-54.4254
-52.3263
-50.2081
-48.1263
-46.1224
-44.2156
-42.4095
-40.702
-39.0889
-37.5669
-36.1324
-34.7794
-33.5009
-32.2903
-31.14
-30.0431
-28.9934
-27.9849
-27.0149
-26.0833
-25.1882
-24.3211
-23.4693
-22.6205
-21.7653
-20.9046
-20.0352
-19.1548
-18.2813
-17.4144
-16.5982
-15.9131
-15.2616
-14.6546
-14.2021
-13.4155
-12.4247
-12.4369
-12.6338
-12.0235
-11.8267
-11.8428
-10.4266
-8.0541
-6.41589
-5.16381
-3.67233
-3.71962
-5.80134
-9.5259
-16.7139
-26.8329
-37.993
-48.89
-58.8378
-67.5914
-75.1636
-81.6587
-87.1859
-91.8087
-95.5409
-98.3566
-100.207
-101.044
-100.831
-99.5479
-97.2206
-93.9163
-89.7461
-84.8563
-79.4167
-73.6074
-67.6056
-61.5756
-55.6611
-49.981
-44.628
-39.6685
-35.1453
-31.0796
-27.4745
-24.3189
-21.5905
-19.2595
-17.2917
-15.6503
-14.2975
-13.1956
-12.3073
-11.5985
-11.04
-10.61
-10.2925
-10.0741
-9.94192
-9.88361
-9.88877
-9.94858
-10.0534
-10.1882
-10.3272
-10.4311
-10.4508
-10.3429
-10.094
-9.74159
-9.36722
-9.05639
-8.85498
-8.76214
-8.75457
-8.79937
-8.85833
-8.90418
-8.92782
-8.93429
-8.92655
-8.87888
-8.73532
-8.46516
-8.11129
-7.7361
-7.35597
-6.96219
-6.53075
-6.01712
-5.39797
-4.74539
-4.2329
-4.01144
-3.85232
-3.43655
-56.3051
-56.27
-56.2166
-56.1732
-56.178
-56.2273
-56.2809
-56.2944
-56.2401
-56.1142
-55.934
-55.7172
-55.4804
-55.2418
-55.023
-54.8691
-54.837
-54.9978
-55.4104
-56.0356
-56.8621
-57.9154
-59.0359
-60.0091
-60.7468
-61.2945
-61.7285
-62.0995
-62.4827
-62.9234
-63.4063
-63.9151
-64.4455
-64.982
-65.4983
-65.9655
-66.3498
-66.6138
-66.7222
-66.6425
-66.3471
-65.8138
-65.0259
-63.9755
-62.6652
-61.1107
-59.3431
-57.4058
-55.3454
-53.2077
-51.044
-48.9064
-46.8296
-44.8259
-42.9014
-41.0656
-39.3266
-37.6887
-36.1531
-34.7177
-33.3813
-32.1477
-31.0136
-29.9599
-28.9637
-28.0109
-27.0979
-26.2262
-25.3928
-24.586
-23.7901
-22.9905
-22.1784
-21.3539
-20.5137
-19.6517
-18.7742
-17.8869
-17.0342
-16.301
-15.6969
-15.2476
-14.9126
-14.4145
-13.9178
-13.7835
-13.3674
-12.7435
-12.6771
-12.4381
-10.7931
-8.18957
-5.9233
-3.74157
-2.35497
-4.02933
-8.88141
-15.9653
-24.8245
-34.6296
-44.6401
-54.2001
-62.9432
-70.7272
-77.5745
-83.5683
-88.7802
-93.2305
-96.8855
-99.6815
-101.541
-102.394
-102.186
-100.893
-98.5357
-95.1794
-90.937
-85.9581
-80.4172
-74.4993
-68.3867
-62.2477
-56.2297
-50.454
-45.0149
-39.98
-35.3924
-31.2734
-27.6255
-24.4366
-21.6832
-19.3343
-17.3544
-15.706
-14.3506
-13.2493
-12.3637
-11.6572
-11.0991
-10.6667
-10.345
-10.1219
-9.98571
-9.92411
-9.9268
-9.98612
-10.0948
-10.2404
-10.3989
-10.5295
-10.5768
-10.4867
-10.2364
-9.86182
-9.45113
-9.10147
-8.8748
-8.78285
-8.79138
-8.84369
-8.90082
-8.95263
-8.9918
-9.0091
-8.99844
-8.9356
-8.77574
-8.49547
-8.13189
-7.75036
-7.38295
-7.00946
-6.57326
-6.03652
-5.41922
-4.81422
-4.34827
-4.08211
-3.80983
-3.31792
-56.7921
-56.8937
-57.1409
-57.4686
-57.7872
-58.0617
-58.2741
-58.4073
-58.4436
-58.3632
-58.1557
-57.8392
-57.4489
-57.0234
-56.6055
-56.2551
-56.05
-56.0594
-56.369
-56.9798
-57.7951
-58.8119
-59.9303
-60.8636
-61.4796
-61.8662
-62.154
-62.4449
-62.8074
-63.2529
-63.766
-64.3485
-64.9941
-65.6703
-66.337
-66.9538
-67.4824
-67.8838
-68.118
-68.149
-67.9443
-67.4747
-66.7195
-65.6724
-64.3421
-62.7536
-60.9449
-58.9599
-56.8399
-54.6262
-52.3644
-50.0963
-47.849
-45.6428
-43.5027
-41.4581
-39.5303
-37.7262
-36.0499
-34.5104
-33.1177
-31.8772
-30.7815
-29.8009
-28.893
-28.0278
-27.1989
-26.4109
-25.662
-24.9407
-24.2305
-23.5139
-22.7765
-22.0135
-21.2248
-20.4055
-19.5513
-18.665
-17.7828
-16.9993
-16.4013
-16.0148
-15.7898
-15.5537
-15.2437
-14.9314
-14.5374
-14.0848
-13.4615
-12.3727
-10.6536
-8.41575
-5.82394
-3.36383
-3.1984
-7.49918
-15.0173
-23.8798
-33.2058
-42.5436
-51.573
-59.9641
-67.5643
-74.3652
-80.4442
-85.8974
-90.7747
-95.053
-98.6455
-101.44
-103.323
-104.202
-104.01
-102.718
-100.336
-96.9283
-92.605
-87.5185
-81.8486
-75.7874
-69.5249
-63.2365
-57.0748
-51.1652
-45.6045
-40.462
-35.7814
-31.5842
-27.8725
-24.6331
-21.8411
-19.4638
-17.4639
-15.8028
-14.4411
-13.3386
-12.4548
-11.7504
-11.192
-10.7563
-10.4294
-10.201
-10.0597
-9.99295
-9.9903
-10.0462
-10.1575
-10.3168
-10.5034
-10.6754
-10.7686
-10.7115
-10.4648
-10.0626
-9.61194
-9.23279
-8.98637
-8.86529
-8.84539
-8.90303
-8.99201
-9.05978
-9.08725
-9.09269
-9.08372
-9.02214
-8.85445
-8.5572
-8.17582
-7.79634
-7.45264
-7.08845
-6.62716
-6.06353
-5.4543
-4.8798
-4.41473
-4.08351
-3.74822
-3.25151
-57.7592
-58.0387
-58.5375
-59.0303
-59.4395
-59.7724
-60.0385
-60.2408
-60.3751
-60.4219
-60.3572
-60.1753
-59.8881
-59.5129
-59.0828
-58.6601
-58.3294
-58.1692
-58.2578
-58.6418
-59.2483
-59.988
-60.7833
-61.4649
-61.9159
-62.1861
-62.3954
-62.6674
-63.0873
-63.6729
-64.3889
-65.1842
-66.0275
-66.8986
-67.7639
-68.5816
-69.3097
-69.9046
-70.3206
-70.5107
-70.4293
-70.0395
-69.3212
-68.2736
-66.9121
-65.2661
-63.3734
-61.2739
-59.0079
-56.6206
-54.1593
-51.6646
-49.1683
-46.7033
-44.308
-42.0203
-39.866
-37.8569
-36.0034
-34.3251
-32.8438
-31.57
-30.4923
-29.5704
-28.7444
-27.9704
-27.2386
-26.5551
-25.9191
-25.3183
-24.7351
-24.1489
-23.532
-22.8628
-22.1446
-21.3967
-20.6195
-19.7886
-18.9044
-18.0525
-17.4018
-17.045
-16.8966
-16.7912
-16.615
-16.3434
-16.0087
-15.4911
-14.3434
-12.6955
-10.9801
-9.10357
-6.8307
-5.30428
-7.44931
-14.1116
-22.7863
-31.9565
-41.1299
-49.9696
-58.1752
-65.5672
-72.1557
-78.0654
-83.447
-88.4232
-93.0307
-97.2
-100.782
-103.614
-105.558
-106.507
-106.377
-105.119
-102.736
-99.2808
-94.8634
-89.6413
-83.8034
-77.5536
-71.0931
-64.6072
-58.2558
-52.1696
-46.4483
-41.1628
-36.3573
-32.0528
-28.251
-24.9376
-22.0869
-19.6651
-17.6331
-15.9505
-14.5772
-13.4712
-12.5885
-11.8851
-11.324
-10.8807
-10.5437
-10.3061
-10.1583
-10.0863
-10.078
-10.129
-10.2415
-10.4165
-10.6405
-10.8733
-11.0401
-11.0453
-10.8213
-10.3924
-9.8841
-9.44798
-9.17406
-9.07113
-9.08125
-9.11323
-9.13481
-9.17877
-9.23127
-9.25158
-9.22957
-9.14819
-8.96676
-8.65442
-8.25839
-7.87902
-7.54302
-7.16711
-6.67127
-6.0779
-5.46769
-4.91269
-4.45532
-4.10295
-3.74465
-3.24553
-59.3888
-59.6885
-60.1381
-60.5776
-60.9709
-61.3202
-61.6241
-61.8778
-62.0704
-62.1791
-62.1937
-62.1337
-62.0149
-61.8248
-61.5559
-61.2382
-60.9271
-60.6794
-60.5528
-60.6085
-60.8512
-61.1977
-61.5737
-61.9175
-62.1774
-62.3682
-62.569
-62.9234
-63.5382
-64.3801
-65.3679
-66.4538
-67.5967
-68.765
-69.9266
-71.041
-72.0618
-72.9338
-73.5973
-73.9943
-74.0735
-73.7958
-73.1376
-72.0914
-70.6673
-68.8923
-66.8085
-64.4687
-61.9326
-59.2608
-56.5061
-53.7116
-50.9153
-48.1568
-45.4785
-42.919
-40.5063
-38.2605
-36.2036
-34.3601
-32.7495
-31.3802
-30.2469
-29.3137
-28.5181
-27.8087
-27.1673
-26.5943
-26.087
-25.6323
-25.2098
-24.7986
-24.3611
-23.8395
-23.2163
-22.5493
-21.8851
-21.1767
-20.3539
-19.4601
-18.7107
-18.2876
-18.1638
-18.2043
-18.1785
-17.908
-17.5344
-16.9762
-15.6593
-13.8761
-12.4198
-11.1099
-9.691
-9.98236
-14.4475
-22.2271
-30.9759
-39.8845
-48.6546
-56.8769
-64.2684
-70.7603
-76.4848
-81.6602
-86.4947
-91.1313
-95.5961
-99.7733
-103.447
-106.402
-108.475
-109.537
-109.482
-108.255
-105.85
-102.318
-97.7687
-92.3686
-86.3173
-79.8313
-73.1246
-66.3939
-59.8083
-53.5042
-47.5848
-42.122
-37.1598
-32.7186
-28.7993
-25.3873
-22.4564
-19.9706
-17.8881
-16.1666
-14.7662
-13.6457
-12.7588
-12.0563
-11.4949
-11.0475
-10.7021
-10.4531
-10.2917
-10.2052
-10.1834
-10.2247
-10.3357
-10.524
-10.7846
-11.0825
-11.3366
-11.4266
-11.2505
-10.8147
-10.26
-9.77241
-9.46803
-9.35246
-9.35929
-9.41623
-9.48717
-9.52265
-9.48249
-9.43055
-9.40167
-9.32673
-9.13298
-8.79436
-8.37393
-7.98157
-7.63109
-7.22244
-6.68103
-6.05491
-5.44956
-4.93325
-4.51314
-4.15632
-3.76456
-3.24462
-61.072
-61.2732
-61.5931
-61.9522
-62.3194
-62.6801
-63.0198
-63.3243
-63.5814
-63.7711
-63.8795
-63.9124
-63.8871
-63.8079
-63.6681
-63.4698
-63.2247
-62.9524
-62.6858
-62.477
-62.3771
-62.3532
-62.3528
-62.3992
-62.5113
-62.6906
-62.9852
-63.5234
-64.4018
-65.5499
-66.8543
-68.2793
-69.8015
-71.3787
-72.9642
-74.4982
-75.9136
-77.1429
-78.1205
-78.7845
-79.0793
-78.9576
-78.3832
-77.3351
-75.8169
-73.8558
-71.5009
-68.8191
-65.8891
-62.7908
-59.5956
-56.3639
-53.1499
-50.0049
-46.9767
-44.1065
-41.4255
-38.9563
-36.7181
-34.7251
-32.9838
-31.4934
-30.2492
-29.2291
-28.3865
-27.6729
-27.0625
-26.5465
-26.1193
-25.7734
-25.4912
-25.2548
-25.0379
-24.7492
-24.2934
-23.7233
-23.1697
-22.6139
-21.9181
-21.0518
-20.2252
-19.704
-19.5671
-19.6895
-19.7225
-19.4524
-19.1212
-18.5915
-17.3469
-15.8307
-14.9637
-14.4244
-14.2619
-16.4884
-22.5296
-30.5368
-39.0159
-47.5388
-55.7599
-63.2634
-69.8508
-75.5621
-80.6041
-85.2361
-89.7004
-94.1674
-98.6658
-103.016
-106.885
-109.97
-112.108
-113.201
-113.155
-111.908
-109.452
-105.826
-101.136
-95.5489
-89.2683
-82.5209
-75.5358
-68.5251
-61.6712
-55.1187
-48.9746
-43.3115
-38.1721
-33.5751
-29.52
-25.9922
-22.9651
-20.401
-18.2547
-16.4816
-15.0399
-13.8885
-12.9811
-12.2668
-11.6985
-11.2448
-10.8927
-10.6365
-10.4656
-10.3652
-10.3247
-10.3453
-10.4406
-10.6273
-10.909
-11.2579
-11.594
-11.7793
-11.6761
-11.2663
-10.6992
-10.1864
-9.8601
-9.73586
-9.75515
-9.83624
-9.90766
-9.9188
-9.87593
-9.81303
-9.71382
-9.56061
-9.32789
-8.96461
-8.51401
-8.09465
-7.71012
-7.24537
-6.64739
-6.0009
-5.42381
-4.96205
-4.5817
-4.2174
-3.79243
-3.24826
-62.4027
-62.5504
-62.798
-63.0997
-63.4336
-63.7853
-64.1383
-64.4752
-64.7824
-65.0485
-65.2638
-65.4263
-65.5296
-65.5644
-65.5255
-65.4099
-65.2132
-64.9361
-64.5897
-64.2084
-63.8584
-63.5687
-63.3462
-63.2445
-63.3105
-63.5562
-64.0168
-64.7945
-65.954
-67.4094
-69.0692
-70.9093
-72.8959
-74.9696
-77.0611
-79.0894
-80.9726
-82.6345
-84.0015
-85.0021
-85.5692
-85.6423
-85.1722
-84.1272
-82.5042
-80.3292
-77.6533
-74.5516
-71.119
-67.4593
-63.6722
-59.8456
-56.0578
-52.3826
-48.8874
-45.6261
-42.6339
-39.9289
-37.5174
-35.396
-33.5521
-31.9682
-30.627
-29.5046
-28.5664
-27.7774
-27.1159
-26.571
-26.1371
-25.8152
-25.5925
-25.4495
-25.3834
-25.3247
-25.109
-24.6995
-24.2625
-23.8619
-23.3368
-22.5755
-21.7527
-21.1825
-21.0245
-21.1481
-21.1758
-20.955
-20.7065
-20.2204
-19.2025
-18.2862
-18.1779
-18.5186
-19.7573
-23.6427
-30.5033
-38.4675
-46.6461
-54.7582
-62.3751
-69.167
-75.0474
-80.1511
-84.7058
-88.9743
-93.2364
-97.7072
-102.396
-106.987
-110.974
-114.015
-116.06
-117.098
-117.042
-115.805
-113.354
-109.7
-104.922
-99.1729
-92.6577
-85.6183
-78.3086
-70.9666
-63.7957
-56.9541
-50.5544
-44.6689
-39.3375
-34.5749
-30.3775
-26.728
-23.5976
-20.9464
-18.7271
-16.8914
-15.396
-14.2014
-13.2634
-12.5301
-11.9501
-11.486
-11.1207
-10.8515
-10.672
-10.5621
-10.5032
-10.498
-10.5683
-10.7373
-11.0143
-11.3822
-11.7737
-12.0478
-12.0389
-11.6966
-11.1632
-10.6676
-10.3559
-10.2394
-10.2537
-10.3268
-10.405
-10.4435
-10.4096
-10.293
-10.1103
-9.88836
-9.59787
-9.17573
-8.67249
-8.21417
-7.78279
-7.25106
-6.60042
-5.94717
-5.40422
-4.99256
-4.64816
-4.28624
-3.84032
-3.27689
-63.3112
-63.421
-63.617
-63.8809
-64.1965
-64.5516
-64.9285
-65.3097
-65.6753
-66.0085
-66.3004
-66.5512
-66.759
-66.9104
-66.9909
-66.9864
-66.8793
-66.6553
-66.3105
-65.8739
-65.4237
-65.0385
-64.7779
-64.6907
-64.8184
-65.1939
-65.8535
-66.8854
-68.3272
-70.0998
-72.1558
-74.4784
-77.0038
-79.6418
-82.2964
-84.8685
-87.2636
-89.3898
-91.1542
-92.4654
-93.2378
-93.4012
-92.9139
-91.7636
-89.9592
-87.5354
-84.5488
-81.0749
-77.2057
-73.0424
-68.6872
-64.2371
-59.7904
-55.4569
-51.3496
-47.5625
-44.1527
-41.1399
-38.5134
-36.2464
-34.3036
-32.6489
-31.2483
-30.0698
-29.0785
-28.2381
-27.5221
-26.9162
-26.4099
-26.013
-25.746
-25.6185
-25.614
-25.6479
-25.5689
-25.3105
-25.0005
-24.747
-24.413
-23.8292
-23.1131
-22.5684
-22.3903
-22.4774
-22.5035
-22.3577
-22.1656
-21.7643
-21.1007
-20.879
-21.469
-22.7097
-25.3436
-30.6369
-37.9389
-45.8299
-53.7459
-61.4685
-68.5357
-74.7297
-80.0705
-84.7486
-88.9684
-92.993
-97.1601
-101.728
-106.634
-111.375
-115.291
-118.121
-120.026
-121.082
-121.142
-120.054
-117.739
-114.155
-109.341
-103.442
-96.6642
-89.2743
-81.5605
-73.7986
-66.2251
-59.0206
-52.3075
-46.1591
-40.6106
-35.6702
-31.3275
-27.5572
-24.3232
-21.5821
-19.2856
-17.3839
-15.8303
-14.5831
-13.6003
-12.8335
-12.2316
-11.7547
-11.383
-11.1075
-10.914
-10.7854
-10.7108
-10.6888
-10.7338
-10.8727
-11.1226
-11.4749
-11.8788
-12.2091
-12.2941
-12.0582
-11.621
-11.1979
-10.932
-10.839
-10.8616
-10.9326
-11.0013
-11.0265
-10.9779
-10.8463
-10.6306
-10.3325
-9.9412
-9.43265
-8.86459
-8.34967
-7.85545
-7.25644
-6.56044
-5.90197
-5.38842
-5.0251
-4.72403
-4.37679
-3.91552
-3.33086
-63.8581
-63.9432
-64.1009
-64.3259
-64.6075
-64.9408
-65.314
-65.7132
-66.1203
-66.513
-66.8722
-67.1886
-67.4601
-67.6845
-67.8545
-67.9549
-67.9623
-67.8541
-67.6227
-67.2967
-66.9513
-66.6755
-66.5442
-66.6032
-66.8979
-67.4688
-68.358
-69.6585
-71.4072
-73.556
-76.0854
-78.9578
-82.0685
-85.2908
-88.4948
-91.5553
-94.3565
-96.7908
-98.7587
-100.169
-100.942
-101.02
-100.384
-99.0329
-96.9892
-94.3005
-91.0408
-87.2997
-83.1707
-78.736
-74.0554
-69.1786
-64.1789
-59.1885
-54.3916
-49.9662
-46.0269
-42.6128
-39.704
-37.2493
-35.1884
-33.4608
-32.0091
-30.7861
-29.7568
-28.8913
-28.1639
-27.5575
-27.047
-26.6119
-26.2613
-26.0475
-25.9978
-26.0099
-25.9345
-25.738
-25.5092
-25.3384
-25.144
-24.7589
-24.229
-23.7908
-23.6213
-23.6653
-23.6828
-23.5822
-23.4201
-23.1451
-22.8676
-23.1949
-24.3622
-26.5597
-30.6095
-37.0865
-44.7239
-52.5511
-60.2907
-67.7039
-74.3528
-80.11
-85.0786
-89.4684
-93.445
-97.278
-101.373
-106.019
-111.058
-115.809
-119.541
-122.149
-124.021
-125.269
-125.611
-124.796
-122.713
-119.273
-114.482
-108.465
-101.42
-93.6304
-85.4264
-77.1372
-69.0497
-61.3799
-54.2686
-47.7921
-41.9798
-36.8315
-32.3276
-28.4323
-25.0981
-22.2719
-19.9002
-17.9318
-16.3186
-15.0169
-13.9855
-13.1809
-12.5552
-12.0642
-11.6779
-11.3815
-11.166
-11.0201
-10.9318
-10.8984
-10.931
-11.0469
-11.2588
-11.5682
-11.9482
-12.3012
-12.4681
-12.3602
-12.0661
-11.7681
-11.5855
-11.5318
-11.5634
-11.625
-11.6698
-11.671
-11.6134
-11.4754
-11.225
-10.8523
-10.3666
-9.76579
-9.11071
-8.50956
-7.9325
-7.26427
-6.52693
-5.8637
-5.37961
-5.07083
-4.82356
-4.49516
-4.01221
-3.39282
-64.0511
-64.1234
-64.2597
-64.4595
-64.7123
-65.0149
-65.3628
-65.7452
-66.149
-66.5559
-66.9452
-67.2992
-67.6081
-67.8696
-68.0835
-68.2452
-68.3436
-68.3668
-68.3149
-68.2132
-68.1156
-68.0932
-68.2161
-68.5343
-69.094
-69.9331
-71.1168
-72.7609
-74.9107
-77.5399
-80.6175
-84.0499
-87.6805
-91.3481
-94.9058
-98.2345
-101.24
-103.842
-105.961
-107.519
-108.431
-108.614
-107.988
-106.51
-104.195
-101.116
-97.396
-93.1931
-88.6751
-83.9755
-79.1337
-74.0948
-68.8034
-63.3216
-57.8766
-52.7683
-48.2253
-44.3408
-41.0978
-38.4197
-36.212
-34.3869
-32.8699
-31.6001
-30.532
-29.6339
-28.8825
-28.269
-27.7808
-27.3801
-27.0278
-26.7465
-26.5952
-26.5171
-26.3832
-26.1891
-26.001
-25.8594
-25.7294
-25.4928
-25.1452
-24.8404
-24.7059
-24.719
-24.7183
-24.6215
-24.4691
-24.3133
-24.3481
-25.0419
-26.7381
-29.9789
-35.4481
-42.8619
-50.7868
-58.6074
-66.2876
-73.5103
-79.9
-85.3807
-90.1103
-94.3002
-98.0833
-101.73
-105.708
-110.342
-115.396
-120.074
-123.628
-126.103
-128.071
-129.638
-130.349
-129.876
-128.124
-124.967
-120.343
-114.318
-107.052
-98.8341
-90.049
-81.1044
-72.3641
-64.1003
-56.4836
-49.5972
-43.4626
-38.0649
-33.3696
-29.3294
-25.887
-22.9775
-20.5359
-18.505
-16.8355
-15.482
-14.4021
-13.5549
-12.8987
-12.3902
-11.9934
-11.6861
-11.4531
-11.279
-11.1605
-11.1113
-11.1425
-11.2501
-11.4266
-11.6794
-12.0127
-12.3658
-12.6043
-12.6366
-12.5154
-12.3721
-12.2931
-12.2886
-12.3298
-12.3843
-12.4206
-12.4072
-12.3212
-12.1436
-11.8513
-11.4293
-10.8721
-10.1787
-9.41935
-8.70585
-8.0242
-7.28071
-6.5043
-5.83699
-5.38448
-5.1353
-4.94292
-4.62941
-4.11866
-3.45988
-63.9176
-63.9781
-64.0947
-64.2727
-64.5022
-64.7748
-65.0886
-65.4369
-65.81
-66.1937
-66.5714
-66.9264
-67.2461
-67.5249
-67.7629
-67.9631
-68.1287
-68.2644
-68.3824
-68.5083
-68.6818
-68.9574
-69.3962
-70.0453
-70.9397
-72.1246
-73.7036
-75.8054
-78.4578
-81.6164
-85.204
-89.0735
-93.0524
-97.0003
-100.819
-104.449
-107.846
-110.944
-113.643
-115.799
-117.243
-117.802
-117.319
-115.722
-113.031
-109.34
-104.81
-99.6805
-94.2686
-88.8839
-83.6619
-78.4833
-73.1028
-67.3832
-61.474
-55.7608
-50.6183
-46.2402
-42.6407
-39.7264
-37.365
-35.4323
-33.8341
-32.5024
-31.3854
-30.4435
-29.6503
-28.9984
-28.4903
-28.1021
-27.7745
-27.4681
-27.2153
-27.0288
-26.8598
-26.6889
-26.5331
-26.4116
-26.3195
-26.1713
-25.9518
-25.7616
-25.6675
-25.6542
-25.6238
-25.5043
-25.349
-25.2929
-25.5525
-26.5166
-28.7671
-33.0873
-39.8308
-47.9397
-56.0987
-64.0069
-71.7288
-78.8869
-85.1736
-90.5259
-95.1269
-99.1821
-102.802
-106.24
-110.007
-114.497
-119.46
-124.04
-127.491
-129.93
-132.06
-133.983
-135.101
-135.059
-133.808
-131.158
-126.916
-121.052
-113.658
-105.014
-95.5668
-85.8256
-76.2662
-67.248
-58.99
-51.5896
-45.0598
-39.3655
-34.4489
-30.2427
-26.6769
-23.6774
-21.1681
-19.081
-17.3611
-15.9627
-14.8417
-13.955
-13.262
-12.7241
-12.3077
-11.9882
-11.7485
-11.57
-11.4399
-11.3692
-11.3804
-11.4708
-11.6139
-11.8091
-12.087
-12.4317
-12.7407
-12.9203
-12.9795
-12.9931
-13.0183
-13.0704
-13.1385
-13.2002
-13.2304
-13.2015
-13.0896
-12.8752
-12.5357
-12.0551
-11.4257
-10.6481
-9.78648
-8.94903
-8.14705
-7.32062
-6.50401
-5.83083
-5.40792
-5.21382
-5.06615
-4.75841
-4.2166
-3.51848
-63.5418
-63.5924
-63.6852
-63.8303
-64.0252
-64.2596
-64.5283
-64.8262
-65.1467
-65.4791
-65.8109
-66.1297
-66.4262
-66.696
-66.9403
-67.165
-67.3804
-67.6015
-67.8502
-68.1581
-68.5661
-69.1244
-69.8853
-70.8845
-72.1494
-73.7438
-75.7968
-78.4146
-81.5804
-85.2157
-89.2142
-93.4353
-97.7596
-102.121
-106.486
-110.828
-115.077
-119.093
-122.653
-125.498
-127.38
-128.112
-127.578
-125.744
-122.644
-118.369
-113.059
-106.92
-100.321
-93.8031
-87.7819
-82.2285
-76.748
-70.9543
-64.8061
-58.6748
-53.0512
-48.2396
-44.3006
-41.1419
-38.6139
-36.5668
-34.8808
-33.4741
-32.2946
-31.3063
-30.4737
-29.7672
-29.194
-28.7639
-28.4353
-28.1303
-27.8274
-27.5514
-27.3376
-27.1843
-27.0633
-26.9706
-26.9113
-26.8201
-26.6898
-26.5977
-26.549
-26.5142
-26.4478
-26.2964
-26.141
-26.1853
-26.629
-27.8527
-30.6919
-36.0229
-43.756
-52.3524
-60.6988
-68.7624
-76.582
-83.783
-90.1041
-95.466
-100.045
-104.032
-107.524
-110.736
-114.18
-118.358
-123.114
-127.59
-131.027
-133.507
-135.786
-138.027
-139.576
-140.069
-139.489
-137.544
-133.897
-128.405
-121.06
-112.089
-101.98
-91.3506
-80.8211
-70.8804
-61.8282
-53.7903
-46.7734
-40.7206
-35.5455
-31.1536
-27.4537
-24.3578
-21.7796
-19.6404
-17.8764
-16.4385
-15.2839
-14.3687
-13.6474
-13.0793
-12.6337
-12.2918
-12.0417
-11.8654
-11.7408
-11.6649
-11.6563
-11.7169
-11.8211
-11.9703
-12.2117
-12.5586
-12.9339
-13.2411
-13.4529
-13.6003
-13.7222
-13.8392
-13.9523
-14.0467
-14.0969
-14.0723
-13.9432
-13.6874
-13.2845
-12.7251
-12.0125
-11.1535
-10.1978
-9.23925
-8.3129
-7.39903
-6.53879
-5.8532
-5.44865
-5.29175
-5.1649
-4.84375
-4.26793
-3.5384
-62.9196
-62.9658
-63.0438
-63.1629
-63.3255
-63.5223
-63.7449
-63.9876
-64.2436
-64.5056
-64.7646
-65.0127
-65.2452
-65.4622
-65.669
-65.8765
-66.1014
-66.3665
-66.7026
-67.1488
-67.7515
-68.5599
-69.6167
-70.9471
-72.5812
-74.5994
-77.129
-80.2309
-83.8496
-87.8979
-92.2889
-96.9382
-101.796
-106.841
-112.036
-117.295
-122.445
-127.222
-131.314
-134.443
-136.41
-137.094
-136.431
-134.38
-130.958
-126.268
-120.466
-113.701
-106.216
-98.6012
-91.5993
-85.4666
-79.7801
-73.9238
-67.6426
-61.2463
-55.2991
-50.1853
-45.9901
-42.6199
-39.9224
-37.744
-35.9564
-34.4674
-33.2174
-32.1698
-31.2964
-30.5565
-29.9252
-29.4189
-29.0429
-28.7355
-28.4317
-28.1234
-27.8719
-27.7129
-27.6034
-27.5201
-27.475
-27.4274
-27.3787
-27.3861
-27.3987
-27.3556
-27.2556
-27.0792
-26.9461
-27.1156
-27.7516
-29.2636
-32.6794
-38.8487
-47.2489
-56.1529
-64.648
-72.8742
-80.8048
-88.1225
-94.5845
-100.077
-104.742
-108.741
-112.159
-115.168
-118.224
-121.914
-126.29
-130.611
-134.079
-136.651
-139.03
-141.493
-143.451
-144.51
-144.643
-143.49
-140.599
-135.711
-128.676
-119.619
-109.011
-97.5464
-85.9893
-74.9999
-65.0122
-56.2133
-48.6137
-42.133
-36.6528
-32.0473
-28.2
-25.0039
-22.3585
-20.1733
-18.3733
-16.902
-15.7155
-14.7733
-14.0305
-13.442
-12.9737
-12.6083
-12.3389
-12.154
-12.0317
-11.9575
-11.9376
-11.9748
-12.0561
-12.1926
-12.4323
-12.7919
-13.2084
-13.5934
-13.9069
-14.1596
-14.3795
-14.5854
-14.7769
-14.9351
-15.0301
-15.0292
-14.8966
-14.6
-14.1216
-13.4635
-12.6441
-11.686
-10.6343
-9.56379
-8.5215
-7.52085
-6.61006
-5.8999
-5.4943
-5.34417
-5.2049
-4.85384
-4.25283
-3.51187
-62.0965
-62.1387
-62.2015
-62.2948
-62.4251
-62.5852
-62.764
-62.9544
-63.1476
-63.3367
-63.5143
-63.6753
-63.8185
-63.9481
-64.075
-64.2173
-64.4003
-64.6566
-65.0268
-65.5579
-66.2999
-67.2985
-68.5874
-70.189
-72.1423
-74.5365
-77.478
-80.9865
-84.9922
-89.4262
-94.2436
-99.4088
-104.894
-110.652
-116.584
-122.527
-128.241
-133.423
-137.766
-141.034
-143.085
-143.825
-143.159
-141.003
-137.34
-132.274
-126.06
-118.928
-110.983
-102.633
-94.7954
-88.0981
-82.1924
-76.2524
-69.8498
-63.2661
-57.1192
-51.8349
-47.4958
-43.9941
-41.1775
-38.8956
-37.0154
-35.4405
-34.1128
-32.9971
-32.0704
-31.3008
-30.6391
-30.0757
-29.6321
-29.2974
-29.0007
-28.7008
-28.4383
-28.2719
-28.1621
-28.0731
-28.0272
-28.0151
-28.0431
-28.151
-28.2469
-28.2282
-28.1167
-27.9346
-27.8512
-28.1752
-29.0326
-30.8574
-34.7781
-41.5513
-50.3311
-59.3851
-67.9904
-76.3461
-84.377
-91.847
-98.5148
-104.223
-109.064
-113.165
-116.592
-119.471
-122.163
-125.244
-129.013
-133.024
-136.479
-139.175
-141.614
-144.168
-146.415
-147.938
-148.662
-148.226
-146.125
-141.983
-135.513
-126.718
-115.982
-103.978
-91.545
-79.5105
-68.5032
-58.8413
-50.5737
-43.6026
-37.7736
-32.9258
-28.914
-25.6093
-22.8953
-20.6682
-18.8413
-17.3482
-16.1384
-15.1705
-14.4039
-13.7975
-13.3149
-12.9329
-12.6429
-12.4376
-12.3021
-12.2225
-12.1981
-12.23
-12.3148
-12.4687
-12.7271
-13.0959
-13.5256
-13.9497
-14.3357
-14.6871
-15.0198
-15.3412
-15.6418
-15.8958
-16.0634
-16.1019
-15.9737
-15.6409
-15.0809
-14.3025
-13.343
-12.2523
-11.0861
-9.9064
-8.75926
-7.67478
-6.70566
-5.95719
-5.52705
-5.34939
-5.17121
-4.78839
-4.17871
-3.44427
-61.1223
-61.1681
-61.2182
-61.2844
-61.3763
-61.4917
-61.6181
-61.7462
-61.8664
-61.9716
-62.0558
-62.1157
-62.1521
-62.1729
-62.1942
-62.2401
-62.3438
-62.5461
-62.8955
-63.4448
-64.2455
-65.3421
-66.7672
-68.55
-70.7424
-73.434
-76.7044
-80.5454
-84.8846
-89.6732
-94.8948
-100.531
-106.536
-112.818
-119.229
-125.577
-131.616
-137.048
-141.576
-144.974
-147.111
-147.895
-147.222
-145.014
-141.249
-135.975
-129.473
-122.119
-114.011
-105.345
-97.0139
-89.9075
-83.8247
-77.8091
-71.3049
-64.6072