/*--------------------------------*- C++ -*----------------------------------*\
  =========                 |
  \\      /  F ield         | OpenFOAM: The Open Source CFD Toolbox
   \\    /   O peration     | Website:  https://openfoam.org
    \\  /    A nd           | Version:  6
     \\/     M anipulation  |
\*---------------------------------------------------------------------------*/
FoamFile
{
    version     2.0;
    format      ascii;
    class       surfaceScalarField;
    location    "0.5";
    object      phi;
}
// * * * * * * * * * * * * * * * * * * * * * * * * * * * * * * * * * * * * * //

dimensions      [0 3 -1 0 0 0 0];

internalField   nonuniform List<scalar> 
24170
(
3.14503e-06
1.19661e-07
3.04579e-06
9.92438e-08
2.93126e-06
1.14529e-07
2.80908e-06
1.22183e-07
2.70279e-06
1.06285e-07
2.62009e-06
8.27061e-08
2.55586e-06
6.42216e-08
2.4983e-06
5.75646e-08
2.43372e-06
6.45833e-08
2.35471e-06
7.90055e-08
2.26395e-06
9.07622e-08
2.17091e-06
9.30403e-08
2.08482e-06
8.60851e-08
2.00933e-06
7.54893e-08
1.94462e-06
6.47182e-08
1.88738e-06
5.72337e-08
1.82957e-06
5.78109e-08
6.05169e-08
1.76905e-06
3.4714e-06
1.52513e-07
3.44539e-06
1.25248e-07
3.43536e-06
1.2456e-07
3.42139e-06
1.36149e-07
3.41159e-06
1.16087e-07
3.40596e-06
8.83341e-08
3.39996e-06
7.02234e-08
3.39303e-06
6.44948e-08
3.38754e-06
7.00784e-08
3.38422e-06
8.23224e-08
3.3813e-06
9.36806e-08
3.3768e-06
9.7544e-08
3.37052e-06
9.23594e-08
3.36295e-06
8.30619e-08
3.35424e-06
7.34248e-08
3.34373e-06
6.77491e-08
3.32869e-06
7.28547e-08
8.04823e-08
3.30872e-06
3.66712e-06
1.7593e-07
3.69394e-06
9.84234e-08
3.72444e-06
9.40622e-08
3.73001e-06
1.30576e-07
3.71794e-06
1.28162e-07
3.70107e-06
1.05201e-07
3.68833e-06
8.29644e-08
3.68502e-06
6.78051e-08
3.6933e-06
6.1797e-08
3.71118e-06
6.44416e-08
3.73242e-06
7.24455e-08
3.74946e-06
8.0501e-08
3.75737e-06
8.44537e-08
3.75662e-06
8.38107e-08
3.75073e-06
7.93107e-08
3.7437e-06
7.47786e-08
3.7423e-06
7.42509e-08
7.56241e-08
3.74716e-06
3.9493e-06
2.00065e-07
3.95072e-06
9.70071e-08
3.96782e-06
7.69581e-08
3.98374e-06
1.14659e-07
3.99315e-06
1.18751e-07
4.0011e-06
9.72475e-08
4.01079e-06
7.32796e-08
4.01703e-06
6.15607e-08
4.01377e-06
6.50635e-08
4.00075e-06
7.74533e-08
3.98256e-06
9.06376e-08
3.96445e-06
9.86091e-08
3.95019e-06
9.87219e-08
3.94222e-06
9.1778e-08
3.94129e-06
8.02385e-08
3.94735e-06
6.87183e-08
3.96181e-06
5.9792e-08
5.47667e-08
3.98267e-06
4.21745e-06
1.05753e-07
4.24074e-06
7.37217e-08
4.24193e-06
7.57708e-08
4.22955e-06
1.27032e-07
4.2218e-06
1.265e-07
4.23528e-06
8.37713e-08
4.26491e-06
4.3646e-08
4.2919e-06
3.45722e-08
4.30272e-06
5.42502e-08
4.29707e-06
8.30936e-08
4.28359e-06
1.04126e-07
4.27158e-06
1.10618e-07
4.26618e-06
1.04121e-07
4.26799e-06
8.99712e-08
4.27453e-06
7.36897e-08
4.28353e-06
5.97243e-08
4.29342e-06
4.9898e-08
4.45222e-08
4.30367e-06
4.59513e-06
3.83555e-08
4.62683e-06
4.20236e-08
4.60275e-06
9.9851e-08
4.56815e-06
1.61628e-07
4.52797e-06
1.6668e-07
4.49141e-06
1.20333e-07
4.47182e-06
6.32349e-08
4.47409e-06
3.22973e-08
4.49282e-06
3.55242e-08
4.5183e-06
5.76101e-08
4.54271e-06
7.97134e-08
4.56248e-06
9.08525e-08
4.57753e-06
8.90748e-08
4.58942e-06
7.80756e-08
4.59969e-06
6.34211e-08
4.60945e-06
4.99657e-08
4.61868e-06
4.06642e-08
3.54087e-08
4.6278e-06
4.78586e-06
-1.17964e-07
4.80464e-06
2.32481e-08
4.79339e-06
1.11097e-07
4.80485e-06
1.50172e-07
4.83773e-06
1.33799e-07
4.87027e-06
8.77941e-08
4.88193e-06
5.15758e-08
4.87084e-06
4.3381e-08
4.85232e-06
5.40453e-08
4.84374e-06
6.61976e-08
4.85302e-06
7.04292e-08
4.8774e-06
6.64676e-08
4.90825e-06
5.82322e-08
4.936e-06
5.03203e-08
4.95396e-06
4.54654e-08
4.95982e-06
4.40998e-08
4.95568e-06
4.48107e-08
4.50102e-08
4.94608e-06
5.26016e-06
-1.17472e-07
5.19882e-06
8.45843e-08
5.1717e-06
1.38222e-07
5.18481e-06
1.37058e-07
5.20346e-06
1.15152e-07
5.20464e-06
8.66127e-08
5.19178e-06
6.44366e-08
5.18083e-06
5.43258e-08
5.18274e-06
5.21423e-08
5.19774e-06
5.11965e-08
5.21913e-06
4.90315e-08
5.23896e-06
4.66389e-08
5.252e-06
4.51951e-08
5.25689e-06
4.54271e-08
5.25545e-06
4.69099e-08
5.25078e-06
4.87727e-08
5.24593e-06
4.9657e-08
4.73387e-08
5.2436e-06
5.44622e-06
1.56498e-07
5.45138e-06
7.94295e-08
5.48473e-06
1.04866e-07
5.50251e-06
1.19283e-07
5.51169e-06
1.05974e-07
5.52267e-06
7.56303e-08
5.54211e-06
4.49962e-08
5.56802e-06
2.84139e-08
5.5927e-06
2.74604e-08
5.60952e-06
3.43761e-08
5.61686e-06
4.16932e-08
5.61696e-06
4.65402e-08
5.61345e-06
4.87042e-08
5.6091e-06
4.97771e-08
5.60545e-06
5.05582e-08
5.60319e-06
5.10409e-08
5.60262e-06
5.02261e-08
4.73661e-08
5.60259e-06
6.03932e-06
-1.33918e-08
6.0162e-06
1.02548e-07
5.97535e-06
1.4571e-07
5.95979e-06
1.34851e-07
5.96251e-06
1.0325e-07
5.97639e-06
6.17506e-08
5.99064e-06
3.07449e-08
5.99289e-06
2.61648e-08
5.97814e-06
4.22068e-08
5.95201e-06
6.05081e-08
5.92588e-06
6.78209e-08
5.90924e-06
6.31821e-08
5.90521e-06
5.27391e-08
5.91178e-06
4.32013e-08
5.9241e-06
3.82462e-08
5.93789e-06
3.72462e-08
5.94962e-06
3.84923e-08
3.85144e-08
5.95848e-06
6.4878e-06
5.43995e-08
6.39922e-06
1.91127e-07
6.37055e-06
1.7438e-07
6.39287e-06
1.12532e-07
6.43112e-06
6.50031e-08
6.45871e-06
3.41575e-08
6.46228e-06
2.71819e-08
6.44476e-06
4.36785e-08
6.41901e-06
6.79556e-08
6.39734e-06
8.21804e-08
6.38585e-06
7.93122e-08
6.38549e-06
6.35405e-08
6.39371e-06
4.45226e-08
6.40724e-06
2.96644e-08
6.42305e-06
2.24423e-08
6.43867e-06
2.16252e-08
6.45245e-06
2.47156e-08
2.82916e-08
6.46267e-06
5.67403e-06
8.04805e-08
5.69753e-06
1.67629e-07
5.76116e-06
1.10754e-07
5.81278e-06
6.09068e-08
5.83444e-06
4.33434e-08
5.82853e-06
4.00636e-08
5.80574e-06
4.99761e-08
5.77938e-06
7.00395e-08
5.76069e-06
8.66496e-08
5.75527e-06
8.75917e-08
5.76256e-06
7.20282e-08
5.77788e-06
4.82172e-08
5.79554e-06
2.6866e-08
5.81056e-06
1.46449e-08
5.82062e-06
1.23783e-08
5.82543e-06
1.68148e-08
5.82634e-06
2.38039e-08
2.86356e-08
5.826e-06
7.10686e-06
1.59922e-07
7.11541e-06
1.59075e-07
7.09798e-06
1.28187e-07
7.08612e-06
7.27704e-08
7.09803e-06
3.14285e-08
7.1139e-06
2.41944e-08
7.12043e-06
4.34513e-08
7.12131e-06
6.91506e-08
7.12469e-06
8.32699e-08
7.13212e-06
8.01642e-08
7.13854e-06
6.5609e-08
7.13812e-06
4.86395e-08
7.12916e-06
3.5823e-08
7.1145e-06
2.93089e-08
7.09893e-06
2.7946e-08
7.0863e-06
2.94477e-08
7.07886e-06
3.12415e-08
3.26634e-08
7.07483e-06
8.56223e-06
1.87004e-07
8.53224e-06
1.89069e-07
8.47644e-06
1.83988e-07
8.43429e-06
1.14923e-07
8.43897e-06
2.67415e-08
8.49038e-06
-2.72078e-08
8.57121e-06
-3.73839e-08
8.65703e-06
-1.66709e-08
8.72416e-06
1.61464e-08
8.75705e-06
4.72745e-08
8.75239e-06
7.02683e-08
8.71893e-06
8.20972e-08
8.67205e-06
8.27051e-08
8.62755e-06
7.38007e-08
8.59614e-06
5.9365e-08
8.58201e-06
4.35692e-08
8.58411e-06
2.91489e-08
2.02551e-08
8.59651e-06
1.06094e-05
9.61551e-08
1.07348e-05
6.36205e-08
1.07315e-05
1.87296e-07
1.06464e-05
2.00007e-07
1.05352e-05
1.37993e-07
1.04231e-05
8.48464e-08
1.03311e-05
5.46182e-08
1.02804e-05
3.40215e-08
1.02783e-05
1.82947e-08
1.0315e-05
1.057e-08
1.03723e-05
1.30016e-08
1.04325e-05
2.1869e-08
1.0484e-05
3.11795e-08
1.0522e-05
3.5837e-08
1.05477e-05
3.3646e-08
1.05644e-05
2.68242e-08
1.05764e-05
1.71562e-08
8.34301e-09
1.05883e-05
1.26512e-05
2.77035e-07
1.25628e-05
1.52057e-07
1.25785e-05
1.71505e-07
1.2642e-05
1.36599e-07
1.27023e-05
7.76748e-08
1.27254e-05
6.16738e-08
1.27051e-05
7.49576e-08
1.26593e-05
7.97887e-08
1.26155e-05
6.21297e-08
1.25929e-05
3.31744e-08
1.2595e-05
1.08896e-08
1.26125e-05
4.34592e-09
1.26332e-05
1.0531e-08
1.26483e-05
2.06776e-08
1.2657e-05
2.49435e-08
1.26628e-05
2.10422e-08
1.26713e-05
8.65955e-09
-2.6069e-09
1.26823e-05
1.55017e-05
3.89117e-07
1.54653e-05
1.88527e-07
1.55243e-05
1.12473e-07
1.55452e-05
1.15697e-07
1.54854e-05
1.37484e-07
1.53918e-05
1.55232e-07
1.53197e-05
1.47135e-07
1.52923e-05
1.07117e-07
1.53012e-05
5.32653e-08
1.53235e-05
1.08859e-08
1.53414e-05
-6.97698e-09
1.53488e-05
-3.13476e-09
1.53491e-05
1.02171e-08
1.53474e-05
2.24292e-08
1.53457e-05
2.66386e-08
1.53436e-05
2.31708e-08
1.53377e-05
1.45377e-08
1.51646e-09
1.53336e-05
1.84625e-05
1.56504e-07
1.85817e-05
6.93371e-08
1.86652e-05
2.9009e-08
1.87186e-05
6.22926e-08
1.87477e-05
1.08352e-07
1.87689e-05
1.33999e-07
1.87935e-05
1.22591e-07
1.88234e-05
7.71909e-08
1.88562e-05
2.05141e-08
1.88903e-05
-2.32211e-08
1.89249e-05
-4.16273e-08
1.8956e-05
-3.42362e-08
1.89755e-05
-9.31163e-09
1.89757e-05
2.228e-08
1.8953e-05
4.93734e-08
1.89103e-05
6.58303e-08
1.88554e-05
6.94759e-08
6.27588e-08
1.87941e-05
2.27739e-05
1.53243e-08
2.26912e-05
1.52045e-07
2.26181e-05
1.02064e-07
2.27201e-05
-3.96499e-08
2.29415e-05
-1.13068e-07
2.3158e-05
-8.24611e-08
2.32733e-05
7.27713e-09
2.32622e-05
8.82787e-08
2.3166e-05
1.16696e-07
2.3051e-05
9.17616e-08
2.29675e-05
4.18465e-08
2.29349e-05
-1.59241e-09
2.2947e-05
-2.14572e-08
2.29873e-05
-1.79659e-08
2.30378e-05
-1.10581e-09
2.30864e-05
1.72007e-08
2.31259e-05
2.99886e-08
3.34446e-08
2.31552e-05
1.68723e-05
-6.84144e-08
1.69832e-05
4.11026e-08
1.70145e-05
7.07324e-08
1.69877e-05
-1.28503e-08
1.69698e-05
-9.51323e-08
1.69904e-05
-1.03097e-07
1.70432e-05
-4.55406e-08
1.71035e-05
2.80467e-08
1.71457e-05
7.44946e-08
1.71557e-05
8.17649e-08
1.71363e-05
6.12497e-08
1.71043e-05
3.03574e-08
1.70802e-05
2.6985e-09
1.70768e-05
-1.46086e-08
1.70951e-05
-1.94376e-08
1.71266e-05
-1.4288e-08
1.7159e-05
-2.39561e-09
1.17133e-08
1.71807e-05
1.44294e-05
-1.45528e-07
1.46208e-05
-1.50291e-07
1.47142e-05
-2.2655e-08
1.47134e-05
-1.20669e-08
1.46785e-05
-6.02345e-08
1.46699e-05
-9.44088e-08
1.47109e-05
-8.65964e-08
1.47842e-05
-4.51954e-08
1.4854e-05
4.66337e-09
1.48933e-05
4.24143e-08
1.4895e-05
5.96115e-08
1.4868e-05
5.73034e-08
1.48287e-05
4.20279e-08
1.47913e-05
2.28304e-08
1.47643e-05
7.55497e-09
1.47501e-05
-1.04648e-10
1.47477e-05
2.09625e-11
5.62597e-09
1.47538e-05
1.29072e-05
1.21011e-07
1.27527e-05
4.24279e-09
1.26985e-05
3.15418e-08
1.26487e-05
3.7685e-08
1.25752e-05
1.32557e-08
1.24966e-05
-1.57328e-08
1.24426e-05
-3.26414e-08
1.24313e-05
-3.39173e-08
1.24628e-05
-2.68219e-08
1.25267e-05
-2.14875e-08
1.26099e-05
-2.35697e-08
1.2699e-05
-3.18396e-08
1.27817e-05
-4.05789e-08
1.28484e-05
-4.3872e-08
1.28948e-05
-3.88997e-08
1.29221e-05
-2.74092e-08
1.29348e-05
-1.26506e-08
-1.77662e-10
1.29406e-05
1.10977e-05
-4.41448e-08
1.11084e-05
-6.43694e-09
1.11297e-05
1.01887e-08
1.11753e-05
-7.93195e-09
1.12096e-05
-2.0967e-08
1.12133e-05
-1.9508e-08
1.11944e-05
-1.36489e-08
1.11736e-05
-1.31791e-08
1.11693e-05
-2.25226e-08
1.1187e-05
-3.92145e-08
1.12197e-05
-5.62122e-08
1.12546e-05
-6.67633e-08
1.12819e-05
-6.78342e-08
1.12986e-05
-6.0596e-08
1.13078e-05
-4.8143e-08
1.13145e-05
-3.40566e-08
1.13229e-05
-2.10997e-08
-1.04417e-08
1.13332e-05
9.57285e-06
-4.54333e-08
9.67698e-06
-1.10571e-07
9.76046e-06
-7.32884e-08
9.7713e-06
-1.87752e-08
9.73281e-06
1.75204e-08
9.68413e-06
2.9174e-08
9.65328e-06
1.72081e-08
9.64526e-06
-5.16135e-09
9.64652e-06
-2.378e-08
9.64169e-06
-3.43939e-08
9.62552e-06
-4.00365e-08
9.60327e-06
-4.45125e-08
9.58468e-06
-4.92496e-08
9.57778e-06
-5.36938e-08
9.58605e-06
-5.64105e-08
9.60835e-06
-5.63608e-08
9.64118e-06
-5.39308e-08
-4.96032e-08
9.68035e-06
8.48564e-06
-1.77746e-08
8.47149e-06
-9.64292e-08
8.45291e-06
-5.47088e-08
8.40315e-06
3.09845e-08
8.35324e-06
6.74384e-08
8.32976e-06
5.26553e-08
8.33929e-06
7.67508e-09
8.37544e-06
-4.1311e-08
8.42578e-06
-7.41197e-08
8.47802e-06
-8.66376e-08
8.52305e-06
-8.50686e-08
8.55509e-06
-7.65446e-08
8.5717e-06
-6.58594e-08
8.57358e-06
-5.55817e-08
8.56437e-06
-4.71937e-08
8.54907e-06
-4.10599e-08
8.53245e-06
-3.73133e-08
-3.57695e-08
8.51861e-06
7.28714e-06
1.74845e-08
7.27443e-06
-8.3719e-08
7.27633e-06
-5.66084e-08
7.28926e-06
1.80539e-08
7.29935e-06
5.73541e-08
7.30247e-06
4.95307e-08
7.30724e-06
2.90429e-09
7.32259e-06
-5.6661e-08
7.34899e-06
-1.00519e-07
7.37927e-06
-1.16914e-07
7.40381e-06
-1.09611e-07
7.41563e-06
-8.83638e-08
7.41317e-06
-6.33967e-08
7.39977e-06
-4.21901e-08
7.3811e-06
-2.85162e-08
7.3624e-06
-2.23602e-08
7.34711e-06
-2.20253e-08
-2.50898e-08
7.33643e-06
6.34571e-06
2.09442e-08
6.32003e-06
-5.80335e-08
6.36203e-06
-9.86078e-08
6.43602e-06
-5.59367e-08
6.50844e-06
-1.50703e-08
6.5528e-06
5.17217e-09
6.55361e-06
2.10138e-09
6.51608e-06
-1.91353e-08
6.46061e-06
-4.50485e-08
6.40896e-06
-6.5264e-08
6.37512e-06
-7.57692e-08
6.36357e-06
-7.68186e-08
6.3718e-06
-7.16244e-08
6.39379e-06
-6.41851e-08
6.42248e-06
-5.72065e-08
6.45187e-06
-5.1748e-08
6.47719e-06
-4.73462e-08
-4.41352e-08
6.49624e-06
5.60193e-06
-2.04211e-07
5.60897e-06
-6.50722e-08
5.59541e-06
-8.50486e-08
5.62048e-06
-8.10114e-08
5.65074e-06
-4.53313e-08
5.67761e-06
-2.16937e-08
5.69968e-06
-1.99702e-08
5.71112e-06
-3.05777e-08
5.70812e-06
-4.20411e-08
5.69332e-06
-5.04637e-08
5.67424e-06
-5.66911e-08
5.65898e-06
-6.15553e-08
5.65252e-06
-6.51675e-08
5.65599e-06
-6.76588e-08
5.66726e-06
-6.8476e-08
5.68284e-06
-6.73228e-08
5.69911e-06
-6.36156e-08
-5.7778e-08
5.71275e-06
4.86502e-06
-1.71639e-07
4.86402e-06
-6.40739e-08
4.82214e-06
-4.31683e-08
4.8016e-06
-6.047e-08
4.82642e-06
-7.01538e-08
4.87454e-06
-6.98141e-08
4.9187e-06
-6.41358e-08
4.94631e-06
-5.81783e-08
4.95852e-06
-5.42532e-08
4.96029e-06
-5.22392e-08
4.95452e-06
-5.09138e-08
4.94265e-06
-4.96853e-08
4.92666e-06
-4.91849e-08
4.90936e-06
-5.0351e-08
4.8934e-06
-5.25255e-08
4.88034e-06
-5.42576e-08
4.87058e-06
-5.38536e-08
-5.08385e-08
4.86364e-06
4.11442e-06
4.05035e-06
4.00718e-06
3.94671e-06
3.87656e-06
3.80674e-06
3.74261e-06
3.68443e-06
3.63017e-06
3.57794e-06
3.52702e-06
3.47734e-06
3.42815e-06
3.3778e-06
3.32527e-06
3.27102e-06
3.21716e-06
3.16632e-06
-1.41673e-07
1.41673e-07
-2.30831e-07
8.91576e-08
-1.66247e-07
-6.45832e-08
2.27364e-08
-1.88984e-07
2.58394e-07
-2.35657e-07
4.67629e-07
-2.09235e-07
6.0016e-07
-1.32532e-07
6.27996e-07
-2.78353e-08
5.39429e-07
8.85661e-08
3.43329e-07
1.961e-07
6.66764e-08
2.76653e-07
-2.49022e-07
3.15698e-07
-5.49076e-07
3.00054e-07
-7.85751e-07
2.36675e-07
-9.4325e-07
1.57499e-07
-1.03032e-06
8.7073e-08
-1.05317e-06
2.28422e-08
-1.04256e-06
-1.06076e-08
-1.05869e-06
1.6128e-08
-1.16156e-06
1.02877e-07
-1.45841e-06
2.96848e-07
-2.00264e-06
5.4423e-07
-2.64956e-06
6.46921e-07
-3.18325e-06
5.3369e-07
-3.56775e-06
3.845e-07
-3.88123e-06
3.13479e-07
-4.11286e-06
2.31627e-07
-4.26442e-06
1.51559e-07
-4.3923e-06
1.27886e-07
-4.50587e-06
1.13572e-07
-4.60166e-06
9.57824e-08
-4.7011e-06
9.94409e-08
-4.81038e-06
1.09281e-07
-4.92213e-06
1.11747e-07
-5.03515e-06
1.13029e-07
-5.14615e-06
1.10993e-07
-5.24753e-06
1.01382e-07
-5.33409e-06
8.65637e-08
-5.4018e-06
6.77086e-08
-5.44565e-06
4.38455e-08
-5.46124e-06
1.55896e-08
-5.44619e-06
-1.50475e-08
-5.39962e-06
-4.65665e-08
-5.32113e-06
-7.84918e-08
-5.20944e-06
-1.11689e-07
-5.06062e-06
-1.48823e-07
-4.86791e-06
-1.92708e-07
-4.62397e-06
-2.43944e-07
-4.32486e-06
-2.99103e-07
-3.97451e-06
-3.50354e-07
-3.58618e-06
-3.88327e-07
-3.17907e-06
-4.07111e-07
-2.77197e-06
-4.07105e-07
-2.37857e-06
-3.93397e-07
-2.00722e-06
-3.71349e-07
-1.66345e-06
-3.4377e-07
-1.35147e-06
-3.11986e-07
-1.07339e-06
-2.78074e-07
-8.32155e-07
-2.41236e-07
-6.29134e-07
-2.03021e-07
-4.61727e-07
-1.67407e-07
-3.23763e-07
-1.37964e-07
-2.03409e-07
-1.20354e-07
-8.49536e-08
-1.18455e-07
4.77008e-08
-1.32654e-07
2.08157e-07
-1.60456e-07
4.01675e-07
-1.93519e-07
6.25067e-07
-2.23392e-07
8.70432e-07
-2.45365e-07
1.129e-06
-2.58572e-07
1.40118e-06
-2.72173e-07
1.68332e-06
-2.82137e-07
1.97743e-06
-2.94119e-07
2.2922e-06
-3.14769e-07
2.61253e-06
-3.2033e-07
2.94451e-06
-3.31978e-07
3.31222e-06
-3.67712e-07
3.68158e-06
-3.69353e-07
4.04251e-06
-3.60936e-07
4.42996e-06
-3.87451e-07
4.71812e-06
-2.8816e-07
4.82818e-06
-1.10061e-07
4.84157e-06
-1.33898e-08
4.51291e-06
3.28666e-07
3.61632e-06
8.96587e-07
2.56931e-06
1.04701e-06
1.77749e-06
7.91823e-07
1.2315e-06
5.4599e-07
8.3137e-07
4.00132e-07
8.97368e-07
-6.59982e-08
1.52283e-06
-6.25463e-07
1.63191e-06
-1.09083e-07
1.01576e-06
6.16153e-07
1.12088e-06
-1.05124e-07
1.92664e-06
-8.0576e-07
2.04579e-06
-1.19142e-07
6.16536e-07
1.42925e-06
-1.87459e-06
2.49113e-06
-4.3685e-06
2.4939e-06
-6.44987e-06
2.08137e-06
-8.07111e-06
1.62124e-06
-9.28611e-06
1.215e-06
-1.01861e-05
9.0001e-07
-1.08548e-05
6.68719e-07
-1.13587e-05
5.03896e-07
-1.17443e-05
3.85574e-07
-1.20405e-05
2.96206e-07
-1.22627e-05
2.22212e-07
-1.24167e-05
1.53989e-07
-1.25025e-05
8.5794e-08
-1.25171e-05
1.4557e-08
-1.24588e-05
-5.8314e-08
-1.23262e-05
-1.32585e-07
-1.2117e-05
-2.09175e-07
-1.18312e-05
-2.85802e-07
-1.14711e-05
-3.60104e-07
-1.10417e-05
-4.29416e-07
-1.05504e-05
-4.91285e-07
-1.00065e-05
-5.43905e-07
-9.42039e-06
-5.86086e-07
-8.80301e-06
-6.17377e-07
-8.16508e-06
-6.37936e-07
-7.51672e-06
-6.48362e-07
-6.86716e-06
-6.49561e-07
-6.22454e-06
-6.42617e-07
-5.59583e-06
-6.2871e-07
-4.98679e-06
-6.09036e-07
-4.40197e-06
-5.84819e-07
-3.84468e-06
-5.57291e-07
-3.31708e-06
-5.27605e-07
-2.82027e-06
-4.96805e-07
-2.35442e-06
-4.65853e-07
-1.91886e-06
-4.35559e-07
-1.51223e-06
-4.06625e-07
-1.13252e-06
-3.79714e-07
-7.77294e-07
-3.55227e-07
-4.43996e-07
-3.33297e-07
-1.30527e-07
-3.13469e-07
1.63808e-07
-2.94335e-07
4.38583e-07
-2.74775e-07
6.95233e-07
-2.56649e-07
9.35792e-07
-2.40559e-07
1.16183e-06
-2.26033e-07
1.37463e-06
-2.12802e-07
1.57552e-06
-2.00889e-07
1.76597e-06
-1.90458e-07
1.94816e-06
-1.82188e-07
2.12581e-06
-1.77644e-07
2.30507e-06
-1.79268e-07
2.49482e-06
-1.8975e-07
2.70505e-06
-2.10226e-07
2.94316e-06
-2.38108e-07
3.20863e-06
-2.65477e-07
3.4885e-06
-2.7987e-07
3.75967e-06
-2.71162e-07
3.99803e-06
-2.38365e-07
4.18368e-06
-1.85651e-07
4.29909e-06
-1.15405e-07
4.33356e-06
-3.44714e-08
4.29361e-06
3.99517e-08
4.19451e-06
9.90978e-08
4.04363e-06
1.50876e-07
3.84256e-06
2.0107e-07
3.59948e-06
2.43084e-07
3.33852e-06
2.60962e-07
3.09739e-06
2.41123e-07
2.9052e-06
1.92195e-07
2.75913e-06
1.46068e-07
2.64185e-06
1.17275e-07
2.54982e-06
9.20308e-08
2.47091e-06
7.89122e-08
2.37336e-06
9.75554e-08
2.27239e-06
1.00965e-07
2.2291e-06
4.32905e-08
2.19228e-06
3.68175e-08
1.98053e-06
2.11755e-07
1.54608e-06
4.34445e-07
1.06796e-06
4.78128e-07
7.06722e-07
3.61234e-07
1.31798e-07
5.74924e-07
-1.05238e-07
2.46912e-07
2.82925e-09
-1.89101e-08
3.15599e-07
-3.77352e-07
6.88829e-07
-5.62214e-07
1.03666e-06
-5.83484e-07
1.32128e-06
-4.93863e-07
1.52725e-06
-3.38495e-07
1.64667e-06
-1.47256e-07
1.6747e-06
6.05349e-08
1.60191e-06
2.68891e-07
1.41964e-06
4.58925e-07
1.12222e-06
6.13118e-07
7.08745e-07
7.13525e-07
2.00484e-07
7.44936e-07
-3.41624e-07
6.99607e-07
-8.39817e-07
5.85266e-07
-1.25535e-06
4.38372e-07
-1.62694e-06
3.6099e-07
-2.03049e-06
4.19675e-07
-2.46356e-06
5.35947e-07
-2.8817e-06
7.14987e-07
-3.25844e-06
9.20971e-07
-3.55014e-06
9.38617e-07
-3.75353e-06
7.37079e-07
-3.88544e-06
5.16411e-07
-3.94563e-06
3.73669e-07
-3.97741e-06
2.6341e-07
-4.0209e-06
1.9505e-07
-4.08023e-06
1.87212e-07
-4.16283e-06
1.96175e-07
-4.26973e-06
2.02677e-07
-4.39168e-06
2.21396e-07
-4.52675e-06
2.44351e-07
-4.671e-06
2.56001e-07
-4.81481e-06
2.5684e-07
-4.95205e-06
2.48227e-07
-5.0784e-06
2.27732e-07
-5.18855e-06
1.96713e-07
-5.27854e-06
1.57705e-07
-5.34638e-06
1.11676e-07
-5.39039e-06
5.96048e-08
-5.408e-06
2.55743e-09
-5.39546e-06
-5.91015e-08
-5.3472e-06
-1.2675e-07
-5.25478e-06
-2.04115e-07
-5.10804e-06
-2.95563e-07
-4.89807e-06
-4.02671e-07
-4.62124e-06
-5.20777e-07
-4.2825e-06
-6.37846e-07
-3.89552e-06
-7.37337e-07
-3.47903e-06
-8.04808e-07
-3.05212e-06
-8.34027e-07
-2.63101e-06
-8.28211e-07
-2.22759e-06
-7.96815e-07
-1.84945e-06
-7.49493e-07
-1.50171e-06
-6.91515e-07
-1.18744e-06
-6.26252e-07
-9.07141e-07
-5.58372e-07
-6.63165e-07
-4.85213e-07
-4.6071e-07
-4.05476e-07
-3.02551e-07
-3.25566e-07
-1.88938e-07
-2.51577e-07
-1.12104e-07
-1.97189e-07
-4.33209e-08
-1.87238e-07
5.49895e-08
-2.30965e-07
2.04202e-07
-3.09668e-07
4.02016e-07
-3.91333e-07
6.32179e-07
-4.53555e-07
8.79354e-07
-4.9254e-07
1.1356e-06
-5.14822e-07
1.39814e-06
-5.34706e-07
1.67347e-06
-5.57474e-07
1.96399e-06
-5.84634e-07
2.26483e-06
-6.15616e-07
2.58547e-06
-6.40961e-07
2.92242e-06
-6.68937e-07
3.26734e-06
-7.12632e-07
3.65505e-06
-7.5706e-07
4.07483e-06
-7.80712e-07
4.45722e-06
-7.69847e-07
4.82112e-06
-6.52055e-07
5.12718e-06
-4.16126e-07
5.25949e-06
-1.45695e-07
5.36319e-06
2.24966e-07
5.5213e-06
7.38473e-07
5.32751e-06
1.2408e-06
4.56842e-06
1.55091e-06
3.59303e-06
1.52138e-06
2.75557e-06
1.2376e-06
2.13851e-06
5.51055e-07
1.8109e-06
-2.97854e-07
1.81215e-06
-1.10328e-07
2.32278e-06
1.05527e-07
2.7049e-06
-4.87246e-07
1.57379e-06
3.2535e-07
-1.03488e-06
2.48953e-06
-3.67377e-06
4.06814e-06
-5.66093e-06
4.47829e-06
-7.18414e-06
4.01711e-06
-8.37764e-06
3.27487e-06
-9.30107e-06
2.54468e-06
-1.00143e-05
1.92826e-06
-1.05638e-05
1.44943e-06
-1.09885e-05
1.0935e-06
-1.13182e-05
8.3353e-07
-1.15753e-05
6.42726e-07
-1.17741e-05
4.94938e-07
-1.19213e-05
3.69468e-07
-1.20183e-05
2.50953e-07
-1.20625e-05
1.30002e-07
-1.20498e-05
1.90254e-09
-1.19725e-05
-1.35682e-07
-1.18232e-05
-2.81822e-07
-1.15994e-05
-4.33015e-07
-1.13003e-05
-5.84877e-07
-1.09283e-05
-7.32136e-07
-1.04885e-05
-8.69237e-07
-9.98847e-06
-9.9127e-07
-9.43787e-06
-1.09451e-06
-8.84726e-06
-1.1767e-06
-8.22759e-06
-1.23704e-06
-7.58952e-06
-1.27601e-06
-6.94291e-06
-1.29497e-06
-6.29661e-06
-1.29587e-06
-5.65823e-06
-1.28099e-06
-5.0342e-06
-1.25275e-06
-4.42969e-06
-1.21354e-06
-3.84875e-06
-1.16576e-06
-3.29424e-06
-1.1118e-06
-2.76799e-06
-1.05386e-06
-2.27084e-06
-9.93954e-07
-1.8028e-06
-9.33887e-07
-1.36319e-06
-8.75168e-07
-9.50732e-07
-8.19087e-07
-5.63559e-07
-7.66887e-07
-2.00051e-07
-7.18735e-07
1.40884e-07
-6.74232e-07
4.60579e-07
-6.33165e-07
7.61219e-07
-5.94975e-07
1.0454e-06
-5.58958e-07
1.31361e-06
-5.24855e-07
1.56563e-06
-4.9258e-07
1.80198e-06
-4.62387e-07
2.02367e-06
-4.34494e-07
2.23188e-06
-4.09098e-07
2.428e-06
-3.86576e-07
2.61407e-06
-3.68259e-07
2.7937e-06
-3.57272e-07
2.97321e-06
-3.58777e-07
3.16209e-06
-3.78628e-07
3.3717e-06
-4.19833e-07
3.61073e-06
-4.7714e-07
3.87826e-06
-5.33013e-07
4.1603e-06
-5.61906e-07
4.43298e-06
-5.43843e-07
4.67007e-06
-4.75454e-07
4.85258e-06
-3.68165e-07
4.97606e-06
-2.38882e-07
5.04567e-06
-1.04075e-07
5.06356e-06
2.20532e-08
5.03165e-06
1.31017e-07
4.95846e-06
2.24059e-07
4.85249e-06
3.07038e-07
4.71737e-06
3.78203e-07
4.5594e-06
4.18938e-07
4.39322e-06
4.07302e-07
4.23052e-06
3.54889e-07
4.06887e-06
3.07723e-07
3.88964e-06
2.96504e-07
3.67064e-06
3.11035e-07
3.42803e-06
3.21519e-07
3.2321e-06
2.93484e-07
3.10852e-06
2.24546e-07
3.02498e-06
1.26828e-07
2.9791e-06
8.26974e-08
2.9922e-06
1.98657e-07
2.99098e-06
4.35664e-07
2.95269e-06
5.1642e-07
2.91393e-06
3.99994e-07
1.77605e-07
2.86812e-06
8.50319e-08
1.6188e-07
5.45956e-07
-4.79835e-07
1.0445e-06
-8.75895e-07
1.45314e-06
-9.70856e-07
1.76077e-06
-8.91109e-07
1.98687e-06
-7.19965e-07
2.14925e-06
-5.00878e-07
2.256e-06
-2.54001e-07
2.30719e-06
9.33887e-09
2.30393e-06
2.7215e-07
2.23641e-06
5.26451e-07
2.08851e-06
7.61019e-07
1.83713e-06
9.64898e-07
1.4563e-06
1.12577e-06
9.29398e-07
1.22651e-06
2.65897e-07
1.24877e-06
-4.72499e-07
1.17677e-06
-1.15879e-06
1.04728e-06
-1.71788e-06
9.78767e-07
-2.18413e-06
1.00219e-06
-2.54462e-06
1.07548e-06
-2.77621e-06
1.15256e-06
-2.92899e-06
1.0914e-06
-3.04055e-06
8.48638e-07
-3.09414e-06
5.70001e-07
-3.08701e-06
3.66536e-07
-3.07217e-06
2.48574e-07
-3.09078e-06
2.13658e-07
-3.15618e-06
2.52615e-07
-3.28444e-06
3.24429e-07
-3.47487e-06
3.9311e-07
-3.69984e-06
4.46368e-07
-3.93697e-06
4.81482e-07
-4.18166e-06
5.00686e-07
-4.42746e-06
5.02638e-07
-4.66212e-06
4.82886e-07
-4.87709e-06
4.42711e-07
-5.06704e-06
3.86661e-07
-5.22846e-06
3.1912e-07
-5.36022e-06
2.43438e-07
-5.46118e-06
1.60565e-07
-5.52727e-06
6.86452e-08
-5.55013e-06
-3.62406e-08
-5.51801e-06
-1.58871e-07
-5.41977e-06
-3.02352e-07
-5.24999e-06
-4.6534e-07
-5.0123e-06
-6.40364e-07
-4.71888e-06
-8.14199e-07
-4.38617e-06
-9.70549e-07
-4.02869e-06
-1.09482e-06
-3.65504e-06
-1.17846e-06
-3.26916e-06
-1.21991e-06
-2.87501e-06
-1.22236e-06
-2.48012e-06
-1.19171e-06
-2.0945e-06
-1.13511e-06
-1.728e-06
-1.05801e-06
-1.3916e-06
-9.6265e-07
-1.09656e-06
-8.53414e-07
-8.49849e-07
-7.31926e-07
-6.57333e-07
-5.97992e-07
-5.21943e-07
-4.60956e-07
-4.29093e-07
-3.44426e-07
-3.38565e-07
-2.87717e-07
-2.05657e-07
-3.20146e-07
-1.80687e-08
-4.18553e-07
2.03311e-07
-5.31048e-07
4.32715e-07
-6.20737e-07
6.56132e-07
-6.76973e-07
8.71033e-07
-7.07441e-07
1.08326e-06
-7.27045e-07
1.2996e-06
-7.51048e-07
1.53174e-06
-7.89612e-07
1.78877e-06
-8.41671e-07
2.06306e-06
-8.89904e-07
2.35194e-06
-9.29843e-07
2.65593e-06
-9.72922e-07
2.98141e-06
-1.03811e-06
3.35821e-06
-1.13387e-06
3.79747e-06
-1.21997e-06
4.27136e-06
-1.24374e-06
4.75262e-06
-1.13332e-06
5.16756e-06
-8.31066e-07
5.42585e-06
-4.03981e-07
5.59239e-06
5.84286e-08
5.76661e-06
5.64245e-07
5.8839e-06
1.12352e-06
5.83961e-06
1.5952e-06
5.47814e-06
1.88285e-06
4.76648e-06
1.94926e-06
3.91199e-06
1.40554e-06
3.19489e-06
4.19247e-07
3.07101e-06
1.35489e-08
3.20271e-06
-2.61699e-08
2.06112e-06
6.54343e-07
-5.79637e-07
2.96611e-06
-3.3205e-06
5.23039e-06
-5.24792e-06
5.99556e-06
-6.43841e-06
5.66878e-06
-7.29289e-06
4.87159e-06
-8.00971e-06
3.99169e-06
-8.62619e-06
3.16115e-06
-9.14565e-06
2.44772e-06
-9.56996e-06
1.87375e-06
-9.91365e-06
1.43719e-06
-1.01939e-05
1.11381e-06
-1.04257e-05
8.74534e-07
-1.06183e-05
6.87517e-07
-1.07731e-05
5.24267e-07
-1.08861e-05
3.63897e-07
-1.09499e-05
1.93854e-07
-1.09566e-05
8.58738e-09
-1.08984e-05
-1.93896e-07
-1.07684e-05
-4.11767e-07
-1.05618e-05
-6.39704e-07
-1.02765e-05
-8.70106e-07
-9.91451e-06
-1.09415e-06
-9.48105e-06
-1.3027e-06
-8.98461e-06
-1.48771e-06
-8.43591e-06
-1.64321e-06
-7.84699e-06
-1.76562e-06
-7.23027e-06
-1.85376e-06
-6.59777e-06
-1.90851e-06
-5.96052e-06
-1.93222e-06
-5.3282e-06
-1.92819e-06
-4.70896e-06
-1.90023e-06
-4.10932e-06
-1.85239e-06
-3.53414e-06
-1.78872e-06
-2.98669e-06
-1.71321e-06
-2.46875e-06
-1.62974e-06
-1.9808e-06
-1.5418e-06
-1.52235e-06
-1.45241e-06
-1.09213e-06
-1.3641e-06
-6.88467e-07
-1.27884e-06
-3.09513e-07
-1.19804e-06
4.63688e-08
-1.12277e-06
3.8088e-07
-1.05325e-06
6.97189e-07
-9.90541e-07
9.99575e-07
-9.35551e-07
1.29125e-06
-8.86644e-07
1.57318e-06
-8.40892e-07
1.84431e-06
-7.95989e-07
2.10303e-06
-7.51294e-07
2.34811e-06
-7.07465e-07
2.57892e-06
-6.65306e-07
2.79508e-06
-6.25257e-07
2.99639e-06
-5.87891e-07
3.18352e-06
-5.55393e-07
3.35946e-06
-5.33212e-07
3.53141e-06
-5.30724e-07
3.71221e-06
-5.59429e-07
3.91923e-06
-6.26856e-07
4.16828e-06
-7.26181e-07
4.46264e-06
-8.27377e-07
4.78299e-06
-8.82253e-07
5.08767e-06
-8.48523e-07
5.32877e-06
-7.16556e-07
5.47627e-06
-5.1566e-07
5.53214e-06
-2.94761e-07
5.5203e-06
-9.22269e-08
5.46165e-06
8.06964e-08
5.36527e-06
2.27404e-07
5.24137e-06
3.47956e-07
5.10618e-06
4.42224e-07
4.96772e-06
5.16668e-07
4.82072e-06
5.65932e-07
4.66257e-06
5.65461e-07
4.50152e-06
5.15937e-07
4.33624e-06
4.72997e-07
4.13893e-06
4.93815e-07
3.8897e-06
5.60264e-07
3.61843e-06
5.92798e-07
3.39375e-06
5.18163e-07
3.25764e-06
3.60658e-07
3.18249e-06
2.01972e-07
3.13741e-06
1.2778e-07
3.15652e-06
1.7955e-07
3.25244e-06
3.39742e-07
3.36029e-06
4.08565e-07
3.45052e-06
3.09766e-07
1.43479e-07
3.48465e-06
4.6175e-07
-2.9987e-07
1.05439e-06
-1.07248e-06
1.45606e-06
-1.27756e-06
1.6967e-06
-1.21151e-06
1.85303e-06
-1.04743e-06
1.97539e-06
-8.42327e-07
2.08914e-06
-6.14624e-07
2.19936e-06
-3.64226e-07
2.29391e-06
-8.52016e-08
2.35414e-06
2.11917e-07
2.37317e-06
5.07418e-07
2.34236e-06
7.91831e-07
2.24791e-06
1.05934e-06
2.06935e-06
1.30433e-06
1.77762e-06
1.51824e-06
1.34379e-06
1.6826e-06
7.5656e-07
1.764e-06
6.3746e-08
1.74009e-06
-6.05124e-07
1.64764e-06
-1.15897e-06
1.55604e-06
-1.57334e-06
1.48985e-06
-1.8508e-06
1.43002e-06
-2.05465e-06
1.29524e-06
-2.23655e-06
1.03054e-06
-2.37895e-06
7.12398e-07
-2.45722e-06
4.44812e-07
-2.49937e-06
2.90718e-07
-2.5677e-06
2.81988e-07
-2.71866e-06
4.03574e-07
-2.9669e-06
5.72675e-07
-3.28165e-06
7.0786e-07
-3.62697e-06
7.91687e-07
-3.98025e-06
8.34759e-07
-4.321e-06
8.41439e-07
-4.63606e-06
8.17694e-07
-4.92252e-06
7.69351e-07
-5.17998e-06
7.00171e-07
-5.40811e-06
6.14794e-07
-5.60537e-06
5.16374e-07
-5.76696e-06
4.05032e-07
-5.88475e-06
2.78355e-07
-5.94847e-06
1.32363e-07
-5.94871e-06
-3.6003e-08
-5.88068e-06
-2.26895e-07
-5.74691e-06
-4.36122e-07
-5.55745e-06
-6.54799e-07
-5.32674e-06
-8.71079e-07
-5.06831e-06
-1.07263e-06
-4.78968e-06
-1.24918e-06
-4.49008e-06
-1.39442e-06
-4.16299e-06
-1.50556e-06
-3.80227e-06
-1.58062e-06
-3.40784e-06
-1.6168e-06
-2.98729e-06
-1.61226e-06
-2.55431e-06
-1.56809e-06
-2.12516e-06
-1.48716e-06
-1.71686e-06
-1.37095e-06
-1.34844e-06
-1.22184e-06
-1.03363e-06
-1.04673e-06
-7.72894e-07
-8.58727e-07
-5.47398e-07
-6.86452e-07
-3.25421e-07
-5.66404e-07
-8.98592e-08
-5.23279e-07
1.45919e-07
-5.55924e-07
3.59142e-07
-6.31776e-07
5.37476e-07
-7.09382e-07
6.82407e-07
-7.65668e-07
8.06205e-07
-8.00771e-07
9.25509e-07
-8.26745e-07
1.05496e-06
-8.56493e-07
1.20499e-06
-9.01086e-07
1.38563e-06
-9.70252e-07
1.60324e-06
-1.05928e-06
1.85006e-06
-1.13672e-06
2.10933e-06
-1.18911e-06
2.37293e-06
-1.23653e-06
2.66465e-06
-1.32982e-06
3.02164e-06
-1.49086e-06
3.46535e-06
-1.66367e-06
3.99879e-06
-1.77718e-06
4.5732e-06
-1.70773e-06
5.08704e-06
-1.34491e-06
5.47213e-06
-7.8907e-07
5.71509e-06
-1.84532e-07
5.82486e-06
4.54476e-07
5.91172e-06
1.03667e-06
6.07216e-06
1.43476e-06
6.06789e-06
1.88711e-06
5.63187e-06
2.38527e-06
4.96585e-06
2.07157e-06
4.42481e-06
9.60282e-07
4.05355e-06
3.84807e-07
3.0605e-06
9.66878e-07
7.38158e-07
2.97669e-06
-2.05873e-06
5.76299e-06
-4.14469e-06
7.31636e-06
-5.37902e-06
7.22988e-06
-6.18036e-06
6.47012e-06
-6.81127e-06
5.50251e-06
-7.34554e-06
4.52597e-06
-7.78546e-06
3.60107e-06
-8.14035e-06
2.80261e-06
-8.43098e-06
2.16437e-06
-8.68054e-06
1.68675e-06
-8.90917e-06
1.34245e-06
-9.1289e-06
1.09427e-06
-9.34391e-06
9.02523e-07
-9.54863e-06
7.28986e-07
-9.73013e-06
5.45399e-07
-9.87208e-06
3.35806e-07
-9.95795e-06
9.44526e-08
-9.97305e-06
-1.78789e-07
-9.90559e-06
-4.79234e-07
-9.74789e-06
-7.97403e-07
-9.49687e-06
-1.12112e-06
-9.15419e-06
-1.43683e-06
-8.7261e-06
-1.7308e-06
-8.22266e-06
-1.99115e-06
-7.65654e-06
-2.20933e-06
-7.04181e-06
-2.38034e-06
-6.39292e-06
-2.50264e-06
-5.72391e-06
-2.57752e-06
-5.04794e-06
-2.60819e-06
-4.3771e-06
-2.59903e-06