/*--------------------------------*- C++ -*----------------------------------*\
  =========                 |
  \\      /  F ield         | OpenFOAM: The Open Source CFD Toolbox
   \\    /   O peration     | Website:  https://openfoam.org
    \\  /    A nd           | Version:  6
     \\/     M anipulation  |
\*---------------------------------------------------------------------------*/
FoamFile
{
    version     2.0;
    format      ascii;
    class       volScalarField;
    location    "0.5";
    object      pMean;
}
// * * * * * * * * * * * * * * * * * * * * * * * * * * * * * * * * * * * * * //

dimensions      [0 2 -2 0 0 0 0];

internalField   nonuniform List<scalar> 
12225
(
1.89282
1.36387
1.00949
0.837971
0.75499
0.694504
0.636019
0.581862
0.538
0.50788
0.492012
0.490919
0.504132
0.532593
0.572837
0.618496
0.64678
0.604234
1.75861
1.32564
0.993271
0.822874
0.739541
0.680229
0.623196
0.569872
0.526169
0.495679
0.479003
0.476412
0.487305
0.511857
0.546494
0.583955
0.603767
0.569799
1.62917
1.29351
0.992864
0.821132
0.733554
0.67354
0.617161
0.56384
0.519198
0.486927
0.467865
0.461632
0.467548
0.484044
0.50779
0.529242
0.533247
0.490682
1.51584
1.25892
0.99229
0.818916
0.724653
0.662588
0.606629
0.553336
0.50753
0.473079
0.450933
0.44035
0.440003
0.447371
0.458279
0.463342
0.449819
0.396333
1.41158
1.21595
0.983735
0.812334
0.71197
0.647596
0.592339
0.539622
0.493
0.456388
0.430923
0.415625
0.408568
0.406638
0.405052
0.395615
0.367504
0.307719
1.31168
1.16468
0.966334
0.802116
0.697893
0.631119
0.576343
0.524324
0.476974
0.438029
0.408831
0.388326
0.374171
0.362921
0.349738
0.327807
0.288838
0.225506
1.21931
1.10876
0.94172
0.78873
0.682978
0.613444
0.558259
0.506519
0.458275
0.416744
0.383404
0.357277
0.335825
0.315545
0.291907
0.259494
0.212335
0.145961
1.1399
1.05249
0.912444
0.772798
0.667566
0.595055
0.538392
0.486247
0.43686
0.39257
0.354835
0.322847
0.294113
0.26527
0.232319
0.19101
0.137024
0.0671054
1.06646
0.995418
0.878242
0.752749
0.650138
0.575229
0.516523
0.463419
0.412708
0.365644
0.323488
0.285643
0.249847
0.213044
0.171794
0.12274
0.0625831
-0.0112187
0.988932
0.935312
0.837604
0.726004
0.627852
0.551681
0.490836
0.436318
0.384061
0.334232
0.28774
0.244178
0.201645
0.157489
0.108806
0.0529034
-0.0127306
-0.0899326
0.919575
0.877542
0.795319
0.696358
0.603688
0.527293
0.464343
0.407896
0.353678
0.300955
0.250179
0.201077
0.152137
0.101168
0.0457488
-0.0162515
-0.0867765
-0.167016
0.863047
0.826626
0.754762
0.665793
0.578566
0.502826
0.438148
0.379573
0.323181
0.267699
0.213151
0.159288
0.104924
0.0482849
-0.0126286
-0.0795179
-0.153878
-0.236522
0.810263
0.777213
0.712894
0.632347
0.550433
0.475865
0.409769
0.348978
0.290208
0.231915
0.173766
0.115477
0.0561471
-0.00561998
-0.0714105
-0.142569
-0.220181
-0.304797
0.756587
0.723855
0.665785
0.593045
0.516549
0.443571
0.376212
0.312925
0.251278
0.189707
0.127601
0.0646242
0.000121108
-0.0669022
-0.137615
-0.212994
-0.293839
-0.380486
0.691387
0.662607
0.61087
0.545154
0.473761
0.402617
0.334234
0.268306
0.203338
0.138023
0.0716551
0.00386383
-0.0658041
-0.137987
-0.213448
-0.29282
-0.376595
-0.464964
0.618464
0.59585
0.550632
0.490865
0.423749
0.354321
0.285137
0.216662
0.148209
0.0788935
0.00811317
-0.0644495
-0.13907
-0.216081
-0.295907
-0.37888
-0.465287
-0.55512
0.545472
0.527977
0.487903
0.432288
0.367782
0.299008
0.228536
0.15729
0.0851752
0.0117245
-0.0634698
-0.14061
-0.21981
-0.301154
-0.384799
-0.470824
-0.559344
-0.650245
0.485135
0.467697
0.428939
0.374587
0.310375
0.240629
0.167942
0.0934745
0.0174782
-0.0601913
-0.139707
-0.221104
-0.304331
-0.389303
-0.475982
-0.564307
-0.654255
-0.745706
0.443915
0.423002
0.38168
0.325122
0.258282
0.185336
0.109068
0.0307633
-0.0492664
-0.131067
-0.214655
-0.2999
-0.386585
-0.474495
-0.563473
-0.653387
-0.744122
-0.835489
0.428376
0.406514
0.361322
0.299219
0.226673
0.148771
0.068466
-0.0132781
-0.0965415
-0.181526
-0.26816
-0.356137
-0.445109
-0.534801
-0.625043
-0.715697
-0.806648
-0.897722
0.436561
0.413291
0.362378
0.292702
0.213226
0.130246
0.0465375
-0.0377762
-0.12346
-0.210899
-0.299852
-0.389798
-0.480292
-0.571075
-0.662018
-0.753015
-0.843954
-0.934678
0.471849
0.440979
0.379711
0.299191
0.21106
0.122737
0.036046
-0.0504576
-0.138401
-0.22817
-0.319198
-0.410752
-0.502387
-0.59393
-0.685338
-0.776534
-0.867411
-0.957787
0.521918
0.481219
0.405694
0.311067
0.21338
0.120559
0.0319779
-0.0561266
-0.146121
-0.238048
-0.330869
-0.423691
-0.516158
-0.608238
-0.699961
-0.791266
-0.882039
-0.972109
0.579604
0.527987
0.434264
0.323171
0.216545
0.120864
0.0313225
-0.0582331
-0.150255
-0.244072
-0.338228
-0.431863
-0.524818
-0.617215
-0.709124
-0.800469
-0.891093
-0.980834
0.648286
0.579714
0.462426
0.334145
0.220985
0.124384
0.0342536
-0.0570696
-0.151247
-0.246726
-0.341844
-0.435964
-0.529182
-0.621736
-0.713718
-0.805042
-0.895554
-0.985046
0.727861
0.631845
0.484655
0.341294
0.225866
0.130223
0.0393284
-0.0542936
-0.150742
-0.24769
-0.34357
-0.43809
-0.531566
-0.624287
-0.716317
-0.807564
-0.897893
-0.987173
0.822844
0.680837
0.497235
0.343413
0.230487
0.137315
0.0456356
-0.0502397
-0.148591
-0.246619
-0.34306
-0.43797
-0.531814
-0.624856
-0.717111
-0.808445
-0.898742
-0.987862
0.938071
0.725035
0.500666
0.341008
0.23323
0.142977
0.0508497
-0.0464104
-0.1456
-0.243798
-0.340126
-0.434914
-0.528691
-0.621667
-0.71379
-0.804862
-0.894854
-0.984106
1.06526
0.763567
0.500384
0.336633
0.23223
0.143017
0.0497632
-0.0488392
-0.148733
-0.2471
-0.343403
-0.438155
-0.531938
-0.624886
-0.716973
-0.807837
-0.897333
-0.984873
1.19405
0.804601
0.516577
0.349596
0.245377
0.15523
0.0602866
-0.0398257
-0.140742
-0.239762
-0.336551
-0.431713
-0.525877
-0.619128
-0.711491
-0.802484
-0.892219
-0.979873
-3.60339
-3.64357
-3.68771
-3.70374
-3.67746
-3.621
-3.57597
-3.58967
-3.69622
-3.90783
-4.21441
-4.58951
-4.99929
-5.41078
-5.7969
-6.13778
-6.42048
-6.6384
-6.79029
-6.87883
-6.909
-6.88946
-6.83111
-6.74546
-6.6449
-6.54274
-6.45483
-6.39423
-6.36635
-6.37423
-6.42216
-6.51365
-6.65091
-6.82725
-7.027
-7.24046
-7.46844
-7.71445
-7.98177
-8.27364
-8.5903
-8.92802
-9.28036
-9.63518
-9.97912
-10.3085
-10.6227
-10.9117
-11.1586
-11.3711
-11.5667
-11.746
-11.8938
-11.9991
-12.0697
-12.125
-12.1821
-12.2479
-12.3128
-12.3733
-12.4334
-12.4871
-12.5595
-12.6779
-12.8381
-13.0362
-13.2666
-13.5119
-13.7493
-13.9617
-14.1336
-14.2506
-14.3152
-14.3467
-14.3566
-14.3429
-14.2957
-14.2132
-14.1022
-13.9675
-13.8026
-13.6004
-13.3532
-13.059
-12.7234
-12.3476
-11.9234
-11.4517
-10.9787
-10.5343
-10.1233
-9.76553
-9.47399
-9.26024
-9.15012
-9.12895
-9.13871
-9.1173
-9.00993
-8.77948
-8.40188
-7.87161
-7.23149
-6.53804
-5.81192
-5.05337
-4.32287
-3.70356
-3.18828
-2.75252
-2.363
-1.98553
-1.57947
-1.09369
-0.504705
0.195287
1.00673
1.92598
2.9408
4.03149
5.17248
6.34306
7.52931
8.68761
9.76048
10.7268
11.5799
12.3203
12.9638
13.5335
14.0556
14.5412
14.9978
15.3922
15.6292
15.6781
15.6123
15.4764
15.2935
15.1355
15.0599
15.0804
15.1961
15.3915
15.6344
15.9008
16.195
16.5302
16.9045
17.3003
17.6934
18.0648
18.402
18.6966
18.9304
19.0667
19.072
18.9538
18.7588
18.5349
18.3128
18.1063
17.9193
17.7573
17.6364
17.5694
17.5544
17.5806
17.6352
17.7032
17.7651
17.7992
17.7944
17.7569
17.706
17.6612
17.6422
17.6656
17.7628
17.8964
-3.82204
-3.86987
-3.93593
-3.98986
-4.01566
-4.02836
-4.06547
-4.16443
-4.34656
-4.61277
-4.94748
-5.32545
-5.71764
-6.09757
-6.44552
-6.74742
-6.99308
-7.17771
-7.30218
-7.37063
-7.38857
-7.36283
-7.3027
-7.22015
-7.1266
-7.0333
-6.95383
-6.90083
-6.88087
-6.89686
-6.95707
-7.0671
-7.22131
-7.4134
-7.6319
-7.86425
-8.11348
-8.37904
-8.65909
-8.95923
-9.27917
-9.61353
-9.95684
-10.3037
-10.6445
-10.9707
-11.2835
-11.5776
-11.8388
-12.0635
-12.2615
-12.4325
-12.5729
-12.681
-12.7616
-12.8236
-12.8785
-12.9336
-12.9837
-13.0338
-13.1044
-13.1916
-13.3022
-13.4473
-13.6224
-13.8235
-14.0423
-14.2614
-14.4644
-14.6395
-14.7787
-14.8757
-14.9354
-14.9728
-14.9933
-14.9889
-14.9435
-14.859
-14.7436
-14.5925
-14.3952
-14.1562
-13.8783
-13.5572
-13.2036
-12.8228
-12.4147
-11.9703
-11.526
-11.1142
-10.7369
-10.4115
-10.1511
-9.96623
-9.87202
-9.84324
-9.82643
-9.768
-9.62044
-9.34756
-8.93533
-8.38529
-7.7361
-7.0336
-6.30031
-5.56125
-4.87741
-4.30586
-3.8147
-3.38362
-2.9795
-2.57095
-2.11874
-1.58351
-0.950658
-0.212094
0.634268
1.58527
2.62743
3.74025
4.8999
6.07684
7.25227
8.39728
9.46634
10.4359
11.2921
12.0394
12.6897
13.2648
13.7931
14.2873
14.7323
15.0775
15.265
15.3024
15.2446
15.1199
14.9638
14.8441
14.8005
14.8442
14.9733
15.1705
15.407
15.6705
15.971
16.3162
16.6999
17.1043
17.506
17.8858
18.2309
18.5288
18.7547
18.8727
18.8643
18.7481
18.566
18.3559
18.1429
17.9395
17.7516
17.5905
17.4745
17.4128
17.4016
17.4309
17.4876
17.5555
17.6152
17.6454
17.6374
17.598
17.5464
17.4977
17.4712
17.475
17.5421
17.6116
-3.95476
-3.99817
-4.09005
-4.2226
-4.38247
-4.56868
-4.79226
-5.06286
-5.38052
-5.73537
-6.11106
-6.48943
-6.85325
-7.18799
-7.48248
-7.72891
-7.9228
-8.06405
-8.15554
-8.20117
-8.20623
-8.17575
-8.11578
-8.03548
-7.94618
-7.85973
-7.78596
-7.73455
-7.71551
-7.73594
-7.80213
-7.91834
-8.07855
-8.27789
-8.51136
-8.76754
-9.04179
-9.3331
-9.64005
-9.96328
-10.2991
-10.6418
-10.9868
-11.3327
-11.6804
-12.0236
-12.3523
-12.6563
-12.9305
-13.1694
-13.3755
-13.5484
-13.6886
-13.8014
-13.8889
-13.9545
-14.0018
-14.0367
-14.0755
-14.1348
-14.2239
-14.3437
-14.4914
-14.6611
-14.8476
-15.0439
-15.2378
-15.417
-15.5741
-15.7065
-15.8145
-15.9005
-15.9705
-16.0254
-16.0559
-16.0493
-15.9967
-15.9022
-15.7637
-15.5716
-15.3272
-15.0404
-14.7174
-14.3597
-13.9912
-13.6225
-13.2496
-12.8632
-12.4779
-12.1177
-11.7935
-11.5123
-11.2885
-11.1331
-11.0434
-10.989
-10.9252
-10.8073
-10.5983
-10.2742
-9.82888
-9.26776
-8.61224
-7.90107
-7.17247
-6.47473
-5.85261
-5.31966
-4.84707
-4.40951
-3.97482
-3.5133
-2.99322
-2.39332
-1.70197
-0.909321
-0.0117271
0.985881
2.06832
3.21344
4.39064
5.56874
6.73011
7.85916
8.92699
9.90275
10.7692
11.5286
12.1898
12.7782
13.3204
13.8138
14.2164
14.4844
14.62
14.6546
14.6078
14.5052
14.3965
14.3285
14.3259
14.4014
14.5509
14.754
14.9887
15.2576
15.571
15.9302
16.3269
16.7442
17.1603
17.5544
17.9105
18.2098
18.4207
18.5142
18.4928
18.3842
18.2205
18.0286
17.8273
17.6279
17.4417
17.2865
17.1809
17.1303
17.1291
17.1671
17.2295
17.2982
17.3536
17.3774
17.3645
17.3208
17.2634
17.2045
17.163
17.1443
17.1731
17.1761
-4.05029
-4.11325
-4.28143
-4.55514
-4.90511
-5.29576
-5.70475
-6.12124
-6.53752
-6.94542
-7.33624
-7.7012
-8.03298
-8.32602
-8.57638
-8.78137
-8.94005
-9.0549
-9.12998
-9.16881
-9.17421
-9.14936
-9.09951
-9.03285
-8.95757
-8.88196
-8.81563
-8.76787
-8.74764
-8.76407
-8.82399
-8.93019
-9.08191
-9.27599
-9.50777
-9.77005
-10.0581
-10.3706
-10.7057
-11.0565
-11.4185
-11.7868
-12.1558
-12.5283
-12.9079
-13.2873
-13.6504
-13.9832
-14.2781
-14.5303
-14.74
-14.9153
-15.0589
-15.1739
-15.2611
-15.3231
-15.3646
-15.3982
-15.4415
-15.5087
-15.6054
-15.7326
-15.8876
-16.0625
-16.2474
-16.4295
-16.596
-16.7413
-16.8651
-16.9714
-17.0659
-17.1529
-17.2335
-17.3001
-17.3382
-17.331
-17.2685
-17.1492
-16.9694
-16.7293
-16.4413
-16.1166
-15.7581
-15.3768
-15.0069
-14.6622
-14.3284
-13.9955
-13.6726
-13.3688
-13.0915
-12.8519
-12.6634
-12.5265
-12.4304
-12.3452
-12.2308
-12.0508
-11.7812
-11.415
-10.9534
-10.3902
-9.73143
-9.02119
-8.31379
-7.65593
-7.06931
-6.55404
-6.08393
-5.63016
-5.15754
-4.63992
-4.0585
-3.40039
-2.6525
-1.80457
-0.853409
0.193707
1.31907
2.49466
3.68528
4.86361
6.0188
7.14109
8.20736
9.18836
10.0657
10.8353
11.5093
12.117
12.6728
13.1463
13.486
13.6925
13.8015
13.8314
13.7913
13.7181
13.6551
13.6324
13.6704
13.7805
13.9559
14.1739
14.4195
14.7027
15.0316
15.4047
15.8149
16.2473
16.6805
17.0911
17.458
17.7568
17.9533
18.0299
18.0051
17.9086
17.7638
17.5888
17.3978
17.2033
17.0224
16.8778
16.7861
16.7497
16.7617
16.8111
16.882
16.9529
17.0031
17.0196
17.0015
16.9532
16.8868
16.812
16.7492
16.7082
16.7038
16.6682
-4.24201
-4.37719
-4.68051
-5.11192
-5.60763
-6.12034
-6.62621
-7.11493
-7.57996
-8.01642
-8.42121
-8.79019
-9.11865
-9.40311
-9.64298
-9.83895
-9.99239
-10.1064
-10.1853
-10.2326
-10.2506
-10.2419
-10.2116
-10.1666
-10.1137
-10.0603
-10.0139
-9.98164
-9.97105
-9.99063
-10.0468
-10.1425
-10.2788
-10.4556
-10.6727
-10.928
-11.2188
-11.5434
-11.8961
-12.2689
-12.6557
-13.0545
-13.4619
-13.8781
-14.3002
-14.7171
-15.1121
-15.4702
-15.7823
-16.0481
-16.2707
-16.4522
-16.5956
-16.7058
-16.7851
-16.8383
-16.8753
-16.9126
-16.9631
-17.0314
-17.1214
-17.239
-17.3841
-17.5475
-17.7161
-17.8743
-18.012
-18.1289
-18.2302
-18.3215
-18.4065
-18.4897
-18.5711
-18.6429
-18.689
-18.6875
-18.6214
-18.4819
-18.2683
-17.9931
-17.6774
-17.3313
-16.9591
-16.5818
-16.2291
-15.9076
-15.6006
-15.3068
-15.0286
-14.765
-14.5263
-14.327
-14.1685
-14.0419
-13.9338
-13.8143
-13.6491
-13.411
-13.0902
-12.6933
-12.2218
-11.6564
-11.0018
-10.3093
-9.63398
-9.00695
-8.43897
-7.92857
-7.45104
-6.97327
-6.45993
-5.89199
-5.25882
-4.54876
-3.74777
-2.84652
-1.84372
-0.749214
0.415317
1.61698
2.82086
4.00512
5.16126
6.27938
7.34138
8.32518
9.21042
9.9887
10.6771
11.3029
11.8612
12.2963
12.5786
12.7514
12.847
12.8693
12.8376
12.794
12.7681
12.7835
12.8596
13.0046
13.2087
13.449
13.7151
14.0181
14.3639
14.7516
15.176
15.6244
16.0751
16.5018
16.8781
17.1754
17.3621
17.4316
17.4116
17.331
17.207
17.0497
16.8697
16.6816
16.5086
16.3766
16.3005
16.2793
16.3042
16.3643
16.443
16.5158
16.5607
16.57
16.5475
16.4951
16.4192
16.3279
16.2441
16.1836
16.1557
16.104
-4.60598
-4.84095
-5.27274
-5.79637
-6.34737
-6.90008
-7.4424
-7.96691
-8.46732
-8.93816
-9.37551
-9.77453
-10.1294
-10.4359
-10.6951
-10.9111
-11.087
-11.2251
-11.329
-11.4008
-11.4434
-11.4609
-11.459
-11.4438
-11.4225
-11.4019
-11.3881
-11.3857
-11.3998
-11.4367
-11.5018
-11.5984
-11.7291
-11.8973
-12.1063
-12.3579
-12.6517
-12.9846
-13.3494
-13.7384
-14.1469
-14.5731
-15.0146
-15.4661
-15.9165
-16.3517
-16.7584
-17.1258
-17.4464
-17.7207
-17.9507
-18.1352
-18.2761
-18.3766
-18.441
-18.4796
-18.5085
-18.5429
-18.5884
-18.6457
-18.7203
-18.8217
-18.9493
-19.0904
-19.2306
-19.3563
-19.4613
-19.5492
-19.6274
-19.7011
-19.7715
-19.8424
-19.9157
-19.9865
-20.0377
-20.0423
-19.9765
-19.828
-19.5999
-19.3114
-18.9876
-18.6407
-18.2801
-17.9274
-17.6005
-17.2982
-17.0114
-16.7429
-16.4884
-16.2505
-16.0461
-15.8827
-15.7465
-15.624
-15.4985
-15.342
-15.1278
-14.8387
-14.4762
-14.0531
-13.5685
-12.999
-12.3564
-11.6946
-11.0579
-10.4596
-9.9062
-9.39654
-8.90698
-8.40115
-7.84808
-7.23495
-6.55452
-5.79502
-4.94324
-3.99156
-2.94123
-1.80481
-0.607251
0.617237
1.83683
3.03208
4.19216
5.30683
6.36435
7.34921
8.23957
9.02567
9.72649
10.3617
10.9048
11.2936
11.5368
11.6938
11.7804
11.7983
11.7808
11.7651
11.7712
11.8205
11.9315
12.1088
12.3411
12.6066
12.8971
13.2224
13.5871
13.9907
14.4302
14.8943
15.3616
15.8032
16.1882
16.485
16.6668
16.7357
16.7246
16.6622
16.56
16.4211
16.2533
16.0737
15.9111
15.7942
15.7354
15.7299
15.7669
15.8355
15.9189
15.9913
16.0311
16.0352
16.009
15.9522
15.8675
15.762
15.6615
15.5867
15.5458
15.4902
-5.17998
-5.46181
-5.92051
-6.44181
-6.98596
-7.54177
-8.10061
-8.65323
-9.19063
-9.70426
-10.1864
-10.6297
-11.0277
-11.3773
-11.6803
-11.9412
-12.1626
-12.3467
-12.496
-12.6118
-12.6972
-12.7569
-12.7975
-12.8261
-12.8498
-12.8752
-12.9074
-12.9498
-13.0059
-13.0793
-13.1736
-13.292
-13.4386
-13.6185
-13.8374
-14.099
-14.4037
-14.7485
-15.1281
-15.5347
-15.9623
-16.4086
-16.8699
-17.3374
-17.7958
-18.2314
-18.635
-18.9987
-19.3167
-19.5889
-19.8144
-19.99
-20.1175
-20.1998
-20.2426
-20.2607
-20.2729
-20.2901
-20.3144
-20.347
-20.3968
-20.4752
-20.5766
-20.6847
-20.7866
-20.8727
-20.94
-20.9944
-21.0456
-21.0973
-21.1484
-21.2024
-21.264
-21.3291
-21.3777
-21.3786
-21.3065
-21.1512
-20.919
-20.6317
-20.3159
-19.9865
-19.6535
-19.3324
-19.032
-18.7506
-18.4857
-18.2356
-17.9963
-17.7811
-17.6091
-17.4758
-17.357
-17.2349
-17.0905
-16.8984
-16.6405
-16.3084
-15.9096
-15.4579
-14.9535
-14.3784
-13.7517
-13.1249
-12.5267
-11.9552
-11.4155
-10.9073
-10.4058
-9.87382
-9.28573
-8.63268
-7.90845
-7.10211
-6.20281
-5.20553
-4.11434
-2.94411
-1.72053
-0.474868
0.764302
1.97522
3.14262
4.25689
5.31205
6.29685
7.18977
7.98164
8.68866
9.32068
9.83514
10.182
10.403
10.5525
10.6323
10.6515
10.6526
10.6637
10.699
10.7792
10.9209
11.1266
11.3844
11.6743
11.989
12.3367
12.7209
13.1415
13.5964
14.0757
14.5581
15.0131
15.4064
15.7046
15.8852
15.9566
15.9558
15.9126
15.8325
15.7119
15.5568
15.3872
15.237
15.1364
15.0953
15.1061
15.1557
15.2318
15.3178
15.3882
15.424
15.4258
15.3978
15.3369
15.2451
15.1299
15.0174
14.9323
14.8838
14.8291
-5.7988
-6.04951
-6.44882
-6.92149
-7.44294
-7.99765
-8.57126
-9.15109
-9.72622
-10.2864
-10.8216
-11.3221
-11.7806
-12.1943
-12.5643
-12.8935
-13.1836
-13.4358
-13.6511
-13.8298
-13.9748
-14.0913
-14.1871
-14.271
-14.351
-14.4333
-14.5219
-14.6197
-14.7289
-14.8518
-14.9911
-15.1504
-15.335
-15.5505
-15.8029
-16.0962
-16.43
-16.801
-17.2044
-17.6325
-18.0784
-18.5388
-19.0082
-19.4765
-19.931
-20.3615
-20.7596
-21.116
-21.4244
-21.6836
-21.8914
-22.045
-22.1454
-22.1966
-22.2074
-22.1934
-22.1726
-22.1552
-22.143
-22.1378
-22.1495
-22.1886
-22.2481
-22.3111
-22.3665
-22.4069
-22.4318
-22.4482
-22.4683
-22.4943
-22.5224
-22.5565
-22.6014
-22.6511
-22.683
-22.6663
-22.5791
-22.4143
-22.1805
-21.901
-21.6024
-21.2992
-20.9981
-20.709
-20.4377
-20.1845
-19.9454
-19.7139
-19.4922
-19.3026
-19.1621
-19.0556
-18.9526
-18.8322
-18.6733
-18.4535
-18.161
-17.7942
-17.3615
-16.8762
-16.3442
-15.7586
-15.1445
-14.5472
-13.9802
-13.4324
-12.9074
-12.4046
-11.8969
-11.3472
-10.7335
-10.049
-9.28727
-8.43948
-7.49823
-6.46187
-5.33709
-4.13981
-2.89379
-1.62556
-0.362337
0.868678
2.04698
3.16404
4.21856
5.20234
6.09577
6.89036
7.59638
8.21483
8.69712
9.0127
9.22218
9.36682
9.4414
9.46623
9.48732
9.52363
9.58579
9.69318
9.86114
10.0908
10.3701
10.6808
11.0168
11.3846
11.7875
12.225
12.6951
13.1888
13.6848
14.1514
14.5518
14.852
15.0332
15.1083
15.1183
15.0946
15.0363
14.9336
14.7915
14.6333
14.4964
14.4117
14.3873
14.4141
14.4762
14.5593
14.6471
14.7161
14.7507
14.754
14.7267
14.6636
14.568
14.448
14.3289
14.2369
14.1826
14.1293
-6.22449
-6.42468
-6.76335
-7.19848
-7.70443
-8.25975
-8.84761
-9.45429
-10.0679
-10.6772
-11.2715
-11.8404
-12.376
-12.8737
-13.3317
-13.7506
-14.1301
-14.4698
-14.7689
-15.0277
-15.2487
-15.4367
-15.5992
-15.7464
-15.8885
-16.0322
-16.1817
-16.3391
-16.5058
-16.6841
-16.8777
-17.0919
-17.3323
-17.6042
-17.9128
-18.2594
-18.6413
-19.0538
-19.4916
-19.9471
-20.413
-20.8858
-21.3599
-21.8266
-22.2775
-22.7052
-23.0991
-23.4462
-23.7397
-23.9789
-24.1611
-24.2829
-24.3464
-24.3566
-24.3249
-24.266
-24.1954
-24.1242
-24.0573
-23.9996
-23.9593
-23.9444
-23.9475
-23.9543
-23.9559
-23.9466
-23.9263
-23.9019
-23.8855
-23.8791
-23.8769
-23.8818
-23.8959
-23.9112
-23.9066
-23.8582
-23.749
-23.5736
-23.3405
-23.0724
-22.7935
-22.5163
-22.2468
-21.9924
-21.7571
-21.5396
-21.3303
-21.121
-20.9221
-20.7609
-20.652
-20.5722
-20.4866
-20.3717
-20.2047
-19.9661
-19.6483
-19.2538
-18.79
-18.2687
-17.7029
-17.0999
-16.4887
-15.909
-15.3636
-14.8368
-14.3305
-13.8403
-13.3358
-12.7801
-12.1531
-11.4483
-10.6587
-9.77766
-8.80181
-7.73282
-6.5794
-5.35751
-4.08844
-2.79531
-1.50613
-0.253798
0.936855
2.05837
3.11318
4.0959
4.98944
5.78467
6.48476
7.0841
7.53734
7.83155
8.03395
8.17417
8.24483
8.27752
8.31792
8.37755
8.46393
8.59464
8.78377
9.03196
9.32732
9.65397
10.0065
10.3907
10.8099
11.2629
11.7473
12.2542
12.762
13.2375
13.6427
13.9439
14.1261
14.2055
14.2266
14.2217
14.1836
14.098
13.9702
13.8251
13.7024
13.6324
13.6229
13.6639
13.7372
13.8267
13.9168
13.9862
14.0229
14.0311
14.0074
13.9455
13.8506
13.7312
13.6107
13.5152
13.4561
13.4035
-6.38188
-6.55591
-6.86658
-7.28236
-7.77764
-8.33334
-8.93554
-9.57153
-10.2287
-10.895
-11.5595
-12.2114
-12.8412
-13.4408
-14.0046
-14.53
-15.0146
-15.455
-15.8489
-16.1966
-16.5013
-16.7681
-17.0049
-17.2222
-17.4305
-17.6373
-17.8474
-18.0635
-18.2883
-18.5255
-18.7807
-19.0601
-19.3687
-19.7098
-20.0853
-20.4927
-20.9269
-21.3831
-21.8556
-22.3378
-22.8231
-23.3087
-23.7909
-24.2628
-24.7178
-25.1471
-25.5369
-25.8724
-26.1473
-26.362
-26.5153
-26.6037
-26.6287
-26.5959
-26.5173
-26.4072
-26.2803
-26.1477
-26.0161
-25.8933
-25.7886
-25.7091
-25.6474
-25.5925
-25.5374
-25.4761
-25.4079
-25.3388
-25.2791
-25.2304
-25.1866
-25.1487
-25.1155
-25.0782
-25.021
-24.9293
-24.7921
-24.6048
-24.374
-24.1186
-23.8585
-23.6061
-23.3688
-23.1529
-22.9597
-22.782
-22.604
-22.4195
-22.2463
-22.1155
-22.039
-21.9874
-21.9212
-21.8139
-21.6427
-21.3906
-21.0538
-20.6371
-20.1468
-19.5932
-18.9935
-18.3686
-17.75
-17.1743
-16.6408
-16.1314
-15.6457
-15.1736
-14.6811
-14.1309
-13.5029
-12.7895
-11.9828
-11.0784
-10.0756
-8.97878
-7.79904
-6.55313
-5.26105
-3.94445
-2.63257
-1.36188
-0.159752
0.966842
2.02285
3.00551
3.90009
4.69547
5.38738
5.96621
6.39543
6.67476
6.87173
7.0079
7.07635
7.11756
7.17548
7.25606
7.36374
7.51365
7.71844
7.9788
8.28399
8.62073
8.98442
9.38039
9.81244
10.2786
10.7751
11.2929
11.8097
12.2907
12.6968
12.9967
13.1795
13.264
13.296
13.3076
13.2875
13.2183
13.1062
12.9763
12.8687
12.8131
12.8165
12.8689
12.9514
13.047
13.1407
13.2131
13.2545
13.2695
13.2525
13.1961
13.1073
12.9937
12.8762
12.78
12.7175
12.665
-6.33797
-6.50251
-6.79925
-7.20061
-7.69049
-8.25545
-8.88287
-9.55987
-10.2735
-11.011
-11.7601
-12.5083
-13.2437
-13.9551
-14.6331
-15.2713
-15.8648
-16.409
-16.9008
-17.3401
-17.7302
-18.0774
-18.3908
-18.6811
-18.9587
-19.2312
-19.5036
-19.7795
-20.0624
-20.3574
-20.6715
-21.0116
-21.3815
-21.7829
-22.2144
-22.6702
-23.1441
-23.6311
-24.127
-24.6279
-25.1288
-25.6273
-26.121
-26.6033
-27.0661
-27.4989
-27.8854
-28.2109
-28.471
-28.6674
-28.7987
-28.8604
-28.8536
-28.7847
-28.6652
-28.5079
-28.3271
-28.1351
-27.9401
-27.7527
-27.5831
-27.4372
-27.309
-27.1906
-27.0761
-26.9589
-26.8376
-26.7177
-26.6074
-26.5065
-26.41
-26.3179
-26.2273
-26.1298
-26.0152
-25.8768
-25.7087
-25.5071
-25.2769
-25.0333
-24.7918
-24.5648
-24.3608
-24.1857
-24.0364
-23.898
-23.7501
-23.591
-23.444
-23.3429
-23.2972
-23.2719
-23.2223
-23.12
-22.9442
-22.6815
-22.3306
-21.8969
-21.3868
-20.8101
-20.1854
-19.541
-18.9107
-18.3288
-17.7969
-17.2971
-16.8269
-16.3718
-15.8962
-15.3608
-14.7416
-14.0292
-13.2153
-12.2962
-11.2732
-10.1529
-8.94956
-7.6822
-6.37095
-5.03681
-3.70912
-2.42522
-1.21404
-0.0830837
0.974314
1.95782
2.85448
3.65013
4.33343
4.89266
5.30225
5.57087
5.76419
5.89799
5.96623
6.0151
6.08738
6.18535
6.31067
6.47569
6.6908
6.95687
7.26517
7.60569
7.97499
8.37802
8.81906
9.29495
9.80032
10.3252
10.8466
11.3281
11.7305
12.026
12.2085
12.2984
12.3402
12.3654
12.3606
12.3074
12.2123
12.0996
12.0081
11.9668
11.9818
12.0436
12.1335
12.235
12.3344
12.4129
12.4607
12.4836
12.4753
12.4286
12.3505
12.2475
12.1367
12.0424
11.9774
11.9248
-6.16578
-6.32057
-6.6046
-7.00254
-7.50391
-8.09636
-8.76676
-9.50161
-10.2872
-11.1096
-11.9541
-12.8054
-13.6483
-14.4688
-15.2551
-15.998
-16.6911
-17.3307
-17.9154
-18.4454
-18.9236
-19.3555
-19.7495
-20.1155
-20.4627
-20.7978
-21.1262
-21.4523
-21.7805
-22.117
-22.4697
-22.8452
-23.2484
-23.6815
-24.1427
-24.6252
-25.1219
-25.6268
-26.1372
-26.6511
-27.1643
-27.6736
-28.177
-28.6682
-29.1387
-29.5766
-29.9655
-30.2914
-30.5497
-30.7417
-30.8641
-30.9109
-30.8836
-30.7897
-30.6403
-30.4473
-30.2243
-29.9844
-29.7382
-29.4981
-29.2739
-29.0691
-28.8793
-28.6989
-28.5239
-28.3487
-28.1721
-27.9989
-27.8343
-27.6754
-27.5193
-27.3674
-27.2169
-27.0605
-26.8916
-26.7089
-26.5106
-26.294
-26.0628
-25.8283
-25.6043
-25.403
-25.2334
-25.0992
-24.9914
-24.8885
-24.7679
-24.6327
-24.5103
-24.4335
-24.4103
-24.403
-24.3613
-24.2573
-24.0738
-23.8013
-23.4404
-22.9965
-22.4766
-21.8897
-21.2532
-20.5954
-19.9539
-19.3623
-18.823
-18.322
-17.8556
-17.4101
-16.9511
-16.4356
-15.8314
-15.1262
-14.3116
-13.3842
-12.3473
-11.2095
-9.9888
-8.70678
-7.38449
-6.0424
-4.70806
-3.41763
-2.20136
-1.06811
-0.00990395
0.974973
1.8741
2.66995
3.34559
3.88801
4.28206
4.54381
4.73621
4.87009
4.93968
4.99357
5.07534
5.18586
5.3245
5.50054
5.72109
5.98698
6.29212
6.63044
7.00031
7.40595
7.85163
8.33314
8.84297
9.36977
9.88981
10.366
10.7599
11.0479
11.2286
11.3239
11.3739
11.4088
11.4163
11.3782
11.3012
11.2073
11.1329
11.1061
11.1325
11.2025
11.2989
11.4065
11.5132
11.6009
11.6573
11.6883
11.6902
11.6555
11.5912
11.5023
11.4015
11.3112
11.2448
11.1913
-5.88494
-6.03605
-6.32316
-6.7382
-7.27169
-7.9106
-8.64102
-9.44849
-10.3176
-11.2316
-12.1726
-13.1226
-14.0638
-14.9807
-15.8616
-16.6975
-17.4818
-18.2109
-18.8842
-19.5018
-20.065
-20.5775
-21.0451
-21.4755
-21.8764
-22.2552
-22.6185
-22.9719
-23.3207
-23.6727
-24.036
-24.4179
-24.8245
-25.2604
-25.7253
-26.2129
-26.715
-27.225
-27.7401
-28.26
-28.7804
-29.2962
-29.805
-30.3023
-30.7803
-31.2269
-31.6263
-31.9643
-32.2348
-32.4377
-32.5674
-32.6148
-32.5816
-32.4769
-32.3118
-32.0986
-31.8513
-31.5834
-31.3069
-31.0339
-30.772
-30.5222
-30.2817
-30.0483
-29.8201
-29.593
-29.3663
-29.1436
-28.9279
-28.7146
-28.5016
-28.2929
-28.0876
-27.8802
-27.6655
-27.444
-27.2178
-26.9865
-26.7528
-26.5257
-26.3169
-26.1392
-26.001
-25.902
-25.8273
-25.7517
-25.6538
-25.5404
-25.4399
-25.3793
-25.366
-25.3642
-25.3193
-25.205
-25.009
-24.726
-24.3579
-23.9107
-23.3908
-22.8054
-22.1689
-21.5058
-20.8566
-20.2556
-19.7038
-19.1924
-18.7192
-18.2731
-17.8246
-17.3283
-16.7409
-16.0446
-15.2327
-14.3029
-13.2593
-12.1132
-10.885
-9.59855
-8.27615
-6.93802
-5.60836
-4.32005
-3.10396
-1.97096
-0.912824
0.0731236
0.973911
1.76957
2.43994
2.97029
3.35387
3.61296
3.80663
3.94295
4.01475
4.06994
4.15549
4.27312
4.42008
4.60279
4.82455
5.08544
5.38236
5.7134
6.07937
6.48367
6.92964
7.4119
7.92072
8.44319
8.95499
9.41949
9.80054
10.0783
10.2561
10.3562
10.4125
10.4529
10.4691
10.4449
10.3864
10.3125
10.2557
10.2437
10.2816
10.3597
10.4625
10.5767
10.692
10.7912
10.8583
10.8982
10.9104
10.8888
10.8396
10.7663
10.6773
10.5926
10.5261
10.4713
-5.51548
-5.67409
-5.98008
-6.4265
-7.00419
-7.69968
-8.49823
-9.38377
-10.3383
-11.3419
-12.3737
-13.414
-14.4448
-15.4509
-16.4206
-17.3446
-18.2149
-19.0255
-19.7737
-20.4588
-21.0819
-21.6466
-22.1586
-22.6249
-23.0535
-23.453
-23.8313
-24.1941
-24.5469
-24.8974
-25.2536
-25.6228
-26.0114
-26.4258
-26.8682
-27.3348
-27.8189
-28.3147
-28.8196
-29.3338
-29.8542
-30.3732
-30.8857
-31.388
-31.8733
-32.3304
-32.745
-33.1031
-33.3972
-33.6257
-33.7813
-33.85
-33.8303
-33.7328
-33.5706
-33.3574
-33.1079
-32.8352
-32.551
-32.2665
-31.9867
-31.7111
-31.4377
-31.1681
-30.9023
-30.6371
-30.3728
-30.1117
-29.8548
-29.5975
-29.3401
-29.0878
-28.8407
-28.5956
-28.3478
-28.0971
-27.8481
-27.6033
-27.3655
-27.1422
-26.944
-26.7844
-26.6698
-26.5951
-26.5409
-26.4818
-26.4012
-26.3064
-26.2236
-26.171
-26.1539
-26.1426
-26.0827
-25.9493
-25.7356
-25.4401
-25.0666
-24.6204
-24.1061
-23.5287
-22.9003
-22.2426
-21.5934
-20.9854
-20.4198
-19.8935
-19.4081
-18.9544
-18.5071
-18.023
-17.4501
-16.7626
-15.9553
-15.0282
-13.986
-12.8414
-11.6166
-10.3368
-9.02599
-7.7044
-6.39161
-5.11512
-3.9052
-2.77564
-1.71991
-0.735149
0.16532
0.960225
1.6286
2.15282
2.53201
2.79262
2.98818
3.12858
3.20319
3.25608
3.33967
3.45893
3.60871
3.79362
4.01325
4.26564
4.55055
4.87008
5.22817
5.62744
6.06925
6.54665
7.04805
7.55909
8.05537
8.50201
8.86616
9.13178
9.3057
9.40954
9.47001
9.51227
9.53396
9.52222
9.48211
9.42852
9.38931
9.39151
9.44049
9.52661
9.63641
9.75848
9.88375
9.99545
10.0749
10.1243
10.147
10.1389
10.1048
10.047
9.96968
9.8907
9.82535
9.76963
-5.05696
-5.22667
-5.55396
-6.033
-6.65549
-7.40717
-8.27207
-9.23254
-10.2685
-11.3582
-12.4796
-13.6108
-14.7308
-15.8211
-16.8678
-17.8606
-18.7912
-19.6531
-20.4431
-21.1615
-21.8115
-22.3979
-22.9267
-23.4053
-23.8427
-24.248
-24.629
-24.9909
-25.3382
-25.6769
-26.0136
-26.3546
-26.707
-27.0786
-27.4755
-27.8989
-28.3467
-28.8148
-29.2997
-29.7999
-30.3133
-30.8316
-31.3469
-31.8542
-32.3467
-32.8155
-33.2497
-33.6368
-33.967
-34.2357
-34.434
-34.5446
-34.5612
-34.4931
-34.3553
-34.1642
-33.9353
-33.6805
-33.4106
-33.1358
-32.86
-32.5809
-32.2979
-32.014
-31.7303
-31.4454
-31.1598
-30.8753
-30.592
-30.3068
-30.0214
-29.7417
-29.4684
-29.1998
-28.9331
-28.6665
-28.4031
-28.1465
-27.902
-27.6771
-27.4835
-27.3352
-27.2353
-27.1731
-27.1264
-27.0736
-27.0035
-26.9226
-26.8507
-26.7982
-26.7655
-26.7297
-26.6437
-26.484
-26.248
-25.9377
-25.5585
-25.1135
-24.6064
-24.0415
-23.4288
-22.7865
-22.1453
-21.534
-20.957
-20.4164
-19.9188
-19.4555
-19.002
-18.5193
-17.9541
-17.2737
-16.4716
-15.5501
-14.5152
-13.3807
-12.1696
-10.9081
-9.62115
-8.328
-7.04319
-5.78807
-4.59129
-3.46994
-2.4209
-1.44122
-0.543495
0.250407
0.919875
1.44422
1.82541
2.09054
2.28772
2.43255
2.51022
2.55881
2.63566
2.75146
2.89909
3.08168
3.29624
3.53794
3.80818
4.11289
4.45921
4.84934
5.28202
5.74821
6.23489
6.72677
7.20037
7.62387
7.96841
8.22096
8.39016
8.49626
8.55892
8.59999
8.62424
8.6233
8.60063
8.56685
8.54445
8.55944
8.61811
8.71174
8.82935
8.96119
9.09776
9.22238
9.31443
9.37372
9.40715
9.41296
9.3933
9.34894
9.28132
9.20712
9.14364
9.08788
-4.43981
-4.62208
-4.97151
-5.48285
-6.14777
-6.95209
-7.87972
-8.91254
-10.0293
-11.2057
-12.4159
-13.6334
-14.8313
-15.9852
-17.0785
-18.1027
-19.0533
-19.9278
-20.7266
-21.4526
-22.11
-22.7027
-23.2351
-23.7139
-24.1481
-24.5468
-24.9171
-25.2641
-25.5925
-25.9084
-26.2173
-26.5249
-26.8378
-27.1637
-27.5101
-27.8826
-28.285
-28.717
-29.174
-29.6519
-30.1479
-30.6553
-31.1661
-31.6758
-32.1776
-32.6641
-33.1269
-33.5541
-33.9331
-34.2549
-34.5093
-34.6787
-34.7545
-34.7422
-34.6547
-34.5096
-34.3246
-34.1114
-33.8797
-33.6382
-33.3902
-33.1325
-32.8641
-32.5883
-32.3071
-32.0203
-31.729
-31.4345
-31.1374
-30.8369
-30.537
-30.2444
-29.9606
-29.6859
-29.4165
-29.1466
-28.8767
-28.6112
-28.3575
-28.1251
-27.9289
-27.7824
-27.6866
-27.6273
-27.5806
-27.527
-27.4595
-27.3852
-27.3168
-27.2572
-27.201
-27.1308
-27.0103
-26.8195
-26.5584
-26.2305
-25.8413
-25.3947
-24.8946
-24.3452
-23.7541
-23.1346
-22.5098
-21.9022
-21.3193
-20.7686
-20.261
-19.7873
-19.3224
-18.8301
-18.2618
-17.5825
-16.783
-15.8682
-14.8458
-13.7303
-12.5445
-11.3147
-10.0654
-8.81285
-7.56662
-6.34235
-5.16634
-4.0585