/*--------------------------------*- C++ -*----------------------------------*\
  =========                 |
  \\      /  F ield         | OpenFOAM: The Open Source CFD Toolbox
   \\    /   O peration     | Website:  https://openfoam.org
    \\  /    A nd           | Version:  6
     \\/     M anipulation  |
\*---------------------------------------------------------------------------*/
FoamFile
{
    version     2.0;
    format      ascii;
    class       volScalarField;
    location    "0.5";
    object      pPrime2Mean;
}
// * * * * * * * * * * * * * * * * * * * * * * * * * * * * * * * * * * * * * //

dimensions      [0 4 -4 0 0 0 0];

internalField   nonuniform List<scalar> 
12225
(
1.10238e+06
1.08601e+06
1.06942e+06
1.05305e+06
1.03705e+06
1.02146e+06
1.0063e+06
991573
977257
963322
949728
936420
923330
910363
897385
884183
870361
854958
1.10242e+06
1.08605e+06
1.06945e+06
1.05307e+06
1.03707e+06
1.02148e+06
1.00632e+06
991595
977281
963350
949762
936463
923386
910441
897499
884368
870718
855873
1.10251e+06
1.08612e+06
1.06951e+06
1.05313e+06
1.03712e+06
1.02152e+06
1.00637e+06
991643
977334
963412
949837
936558
923510
910610
897745
884758
871421
857475
1.10266e+06
1.08624e+06
1.06961e+06
1.05321e+06
1.03719e+06
1.0216e+06
1.00644e+06
991722
977422
963515
949961
936713
923712
910884
898138
885363
872443
859397
1.10289e+06
1.08642e+06
1.06975e+06
1.05334e+06
1.03731e+06
1.02171e+06
1.00655e+06
991838
977552
963665
950143
936940
924005
911277
898688
886177
873720
861475
1.10323e+06
1.08667e+06
1.06996e+06
1.05351e+06
1.03746e+06
1.02186e+06
1.0067e+06
991998
977730
963872
950390
937247
924397
911796
899399
887186
875197
863630
1.10363e+06
1.087e+06
1.07023e+06
1.05374e+06
1.03767e+06
1.02205e+06
1.0069e+06
992208
977964
964142
950713
937644
924899
912447
900268
888370
876826
865825
1.10417e+06
1.08742e+06
1.07057e+06
1.05404e+06
1.03794e+06
1.02231e+06
1.00715e+06
992477
978261
964483
951118
938138
925516
913234
901288
889708
878574
868041
1.10484e+06
1.08794e+06
1.071e+06
1.05441e+06
1.03827e+06
1.02262e+06
1.00747e+06
992811
978629
964905
951614
938736
926252
914154
902450
891177
880412
870270
1.10567e+06
1.08859e+06
1.07153e+06
1.05486e+06
1.03868e+06
1.02301e+06
1.00786e+06
993219
979076
965412
952207
939443
927109
915203
903741
892759
882321
872509
1.10662e+06
1.08936e+06
1.07217e+06
1.05541e+06
1.03917e+06
1.02348e+06
1.00832e+06
993707
979609
966013
952902
940262
928085
916374
905147
894435
884286
874754
1.10759e+06
1.09021e+06
1.07287e+06
1.05601e+06
1.03971e+06
1.02398e+06
1.00883e+06
994233
980181
966653
953634
941114
929085
917552
906530
896045
886129
876816
1.10881e+06
1.09118e+06
1.07367e+06
1.05669e+06
1.04032e+06
1.02456e+06
1.0094e+06
994825
980820
967364
954441
942042
930160
918799
907970
897691
887982
878861
1.11048e+06
1.09247e+06
1.07471e+06
1.05758e+06
1.04111e+06
1.0253e+06
1.01014e+06
995593
981645
968274
955464
943203
931487
920313
909689
899622
890120
881189
1.11273e+06
1.09417e+06
1.07608e+06
1.05873e+06
1.04214e+06
1.02627e+06
1.0111e+06
996581
982698
969425
956743
944638
933100
922125
911710
901854
892555
883807
1.11559e+06
1.09636e+06
1.07782e+06
1.0602e+06
1.04344e+06
1.0275e+06
1.01231e+06
997827
984020
970857
958315
946376
935025
924250
914041
904390
895284
886709
1.11917e+06
1.09902e+06
1.07993e+06
1.06198e+06
1.04504e+06
1.029e+06
1.0138e+06
999356
985632
972588
960194
948425
937261
926682
916670
907210
898282
889865
1.12307e+06
1.10195e+06
1.08226e+06
1.06397e+06
1.04685e+06
1.03074e+06
1.01553e+06
1.00114e+06
987514
974597
962354
950754
939769
929373
919543
910255
901485
893210
1.12665e+06
1.10447e+06
1.08434e+06
1.06585e+06
1.04865e+06
1.03254e+06
1.01738e+06
1.00308e+06
989568
976788
964699
953263
942445
932216
922547
913409
904777
896624
1.12553e+06
1.10455e+06
1.08494e+06
1.06673e+06
1.04971e+06
1.03374e+06
1.01871e+06
1.00453e+06
991141
978485
966520
955206
944509
934395
924834
915797
907254
899180
1.12418e+06
1.10399e+06
1.08489e+06
1.067e+06
1.05021e+06
1.03441e+06
1.01951e+06
1.00544e+06
992149
979586
967708
956477
945857
935816
926322
917346
908858
900832
1.12267e+06
1.10321e+06
1.08459e+06
1.06702e+06
1.05045e+06
1.03481e+06
1.02003e+06
1.00606e+06
992851
980361
968551
957381
946818
936828
927381
918447
909997
902003
1.12135e+06
1.10244e+06
1.08421e+06
1.06692e+06
1.05054e+06
1.03504e+06
1.02036e+06
1.00647e+06
993334
980903
969143
958018
947496
937543
928129
919224
910800
902828
1.12015e+06
1.10175e+06
1.08386e+06
1.06679e+06
1.05056e+06
1.03517e+06
1.02058e+06
1.00675e+06
993665
981276
969553
958462
947968
938042
928650
919766
911359
903403
1.11925e+06
1.10121e+06
1.08357e+06
1.06666e+06
1.05056e+06
1.03525e+06
1.02071e+06
1.00694e+06
993888
981530
969834
958765
948292
938383
929008
920137
911743
903797
1.11853e+06
1.10079e+06
1.08334e+06
1.06656e+06
1.05054e+06
1.03529e+06
1.0208e+06
1.00706e+06
994035
981699
970021
958968
948508
938611
929247
920385
911999
904061
1.11795e+06
1.10049e+06
1.08318e+06
1.06649e+06
1.05053e+06
1.03532e+06
1.02086e+06
1.00714e+06
994129
981807
970141
959098
948647
938758
929401
920545
912164
904230
1.11756e+06
1.10029e+06
1.08308e+06
1.06645e+06
1.05052e+06
1.03533e+06
1.02089e+06
1.00718e+06
994185
981872
970213
959177
948732
938847
929494
920642
912264
904333
1.11736e+06
1.10018e+06
1.08303e+06
1.06642e+06
1.05051e+06
1.03534e+06
1.02091e+06
1.00721e+06
994215
981907
970252
959219
948777
938895
929544
920694
912317
904388
1.11725e+06
1.10014e+06
1.083e+06
1.06641e+06
1.05051e+06
1.03534e+06
1.02091e+06
1.00722e+06
994228
981921
970268
959236
948795
938914
929564
920715
912339
904410
722895
722838
722722
722546
722310
722013
721653
721230
720742
720189
719568
718881
718125
717302
716410
715450
714421
713323
712156
710921
709617
708244
706804
705296
703721
702080
700374
698603
696768
694870
692910
690889
688807
686666
684467
682209
679896
677526
675102
672624
670093
667509
664873
662187
659451
656665
653831
650948
648017
645039
642014
638943
635828
632670
629469
626226
622942
619617
616254
612854
609416
605943
602433
598888
595309
591696
588049
584370
580660
576919
573148
569346
565514
561651
557756
553833
549884
545911
541914
537892
533846
529777
525684
521567
517428
513266
509082
504876
500647
496395
492122
487829
483521
479198
474858
470503
466134
461752
457357
452947
448521
444077
439612
435126
430623
426105
421573
417025
412466
407904
403336
398762
394179
389583
384971
380342
375695
371032
366355
361664
356965
352258
347546
342831
338118
333409
328705
324009
319318
314631
309945
305257
300564
295862
291153
286444
281743
277051
272368
267690
263015
258339
253659
248977
244291
239606
234926
230255
225597
220955
216330
211723
207134
202563
198010
193478
188970
184489
180032
175597
171180
166780
162399
158041
153709
149405
145129
140885
136673
132498
128361
124265
120210
116198
112231
108311
104444
100636
96903.9
93281.3
723156
723098
722981
722805
722567
722268
721907
721481
720990
720434
719810
719119
718361
717534
716638
715673
714640
713537
712366
711125
709815
708437
706991
705477
703896
702249
700538
698761
696921
695018
693053
691027
688941
686796
684592
682331
680013
677640
675213
672731
670196
667609
664970
662281
659541
656752
653915
651029
648095
645114
642086
639013
635895
632733
629528
626282
622995
619669
616304
612902
609463
605987
602475
598927
595346
591731
588083
584403
580692
576951
573178
569374
565540
561674
557778
553855
549907
545934
541936
537915
533869
529800
525707
521591
517451
513288
509102
504894
500663
496409
492136
487845
483538
479216
474878
470524
466157
461777
457382
452972
448545
444099
439633
435146
430643
426123
421589
417042
412486
407926
403362
398789
394205
389609
384995
380364
375716
371051
366371
361680
356978
352270
347557
342843
338130
333421
328718
324022
319331
314644
309957
305268
300574
295873
291166
286461
281763
277072
272388
267710
263032
258354
253673
248989
244303
239617
234937
230265
225606
220963
216337
211729
207139
202567
198014
193482
188975
184494
180038
175602
171184
166784
162403
158045
153713
149408
145133
140887
136676
132500
128363
124267
120212
116200
112231
108310
104441
100632
96894.6
93253.7
723680
723621
723503
723325
723086
722783
722418
721987
721492
720929
720300
719602
718836
718001
717097
716124
715081
713969
712786
711535
710214
708824
707366
705841
704249
702590
700867
699079
697228
695314
693339
691304
689208
687054
684842
682573
680247
677867
675432
672944
670403
667809
665164
662468
659722
656926
654082
651191
648251
645264
642230
639150
636026
632857
629647
626395
623103
619773
616405
612999
609556
606075
602558
599007
595422
591804
588153
584471
580758
577013
573237
569430
565591
561722
557825
553901
549952
545978
541980
537959
533914
529845
525752
521636
517495
513329
509139
504927
500693
496439
492166
487877
483572
479251
474914
470564
466199
461820
457426
453015
448585
444137
439669
435181
430675
426153
421618
417074
412523
407968
403405
398834
394251
389653
385037
380403
375752
371084
366401
361706
357003
352293
347579
342864
338152
333443
328741
324045
319354
314667
309979
305289
300594
295894
291193
286493
281798
277109
272424
267743
263062
258382
253699
249013
244325
239639
234958
230285
225624
220978
216349
211739
207148
202576
198022
193491
188985
184505
180048
175612
171193
166792
162411
158053
153721
149415
145139
140893
136680
132504
128366
124270
120214
116201
112232
108309
104437
100623
96878
93214.2
724471
724411
724291
724111
723867
723561
723189
722752
722248
721677
721038
720329
719552
718705
717787
716800
715742
714614
713416
712148
710811
709404
707929
706387
704777
703102
701362
699557
697690
695760
693769
691719
689609
687442
685216
682935
680598
678207
675762
673264
670713
668110
665455
662749
659993
657188
654335
651434
648484
645488
642444
639355
636221
633045
629825
626566
623266
619929
616554
613142
609693
606206
602685
599128
595538
591916
588261
584575
580857
577107
573325
569512
565669
561797
557898
553972
550021
546046
542047
538024
533979
529910
525817
521699
517555
513386
509193
504977
500741
496486
492213
487925
483621
479302
474968
470620
466258
461880
457486
453073
448640
444187
439717
435226
430717
426194
421661
417121
412576
408024
403464
398894
394311
389710
385092
380455
375800
371127
366441
361743
357036
352324
347609
342894
338181
333473
328771
324075
319386
314698
310010
305319
300625
295928
291232
286537
281844
277156
272470
267787
263103
258420
253734
249046
244358
239671
234988
230313
225649
220999
216368
211755
207162
202588
198034
193503
188998
184518
180061
175624
171205
166804
162423
158064
153731
149425
145148
140901
136687
132509
128371
124274
120218
116204
112233
108307
104432
100612
96856.5
93170.1
725533
725472
725349
725165
724916
724602
724223
723776
723261
722677
722024
721301
720507
719642
718706
717700
716622
715473
714253
712964
711604
710175
708677
707112
705480
703782
702020
700194
698305
696355
694344
692274
690145
687959
685717
683419
681067
678660
676201
673690
671126
668510
665842
663123
660355
657537
654672
651758
648796
645786
642730
639628
636482
633294
630064
626794
623485
620137
616753
613332
609874
606380
602850
599287
595692
592064
588404
584711
580986
577229
573441
569622
565775
561898
557995
554066
550113
546135
542135
538111
534064
529993
525898
521778
517631
513458
509261
505043
500805
496549
492276
487988
483685
479368
475037
470692
466332
461955
457560
453145
448708
444252
439776
435282
430771
426249
421720
417183
412642
408094
403536
398967
394383
389780
385159
380518
375857
371180
366489
361787
357078
352363
347646
342930
338216
333509
328807
324113
319424
314737
310049
305358
300666
295974
291281
286589
281899
277212
272525
267839
263153
258466
253778
249088
244398
239710
235025
230348
225680
221027
216391
211776
207180
202604
198050
193520
189015
184535
180077
175639
171219
166817
162436
158078
153744
149437
145159
140911
136695
132516
128377
124279
120223
116207
112234
108305
104426
100600
96832.6
93125.3
726874
726810
726683
726492
726236
725913
725522
725062
724533
723932
723261
722518
721703
720816
719857
718825
717722
716546
715300
713982
712594
711137
709611
708017
706357
704632
702842
700989
699074
697098
695062
692968
690815
688607
686343
684024
681652
679227
676750
674221
671640
669008
666324
663589
660805
657972
655090
652160
649182
646157
643084
639967
636806
633604
630360
627076
623754
620394
616997
613564
610095
606591
603053
599482
595878
592243
588575
584875
581143
577378
573584
569760
565907
562025
558117
554184
550227
546246
542243
538216
534167
530093
525994
521869
517718
513541
509342
505121
500882
496626
492353
488065
483763
479448
475120
470778
466420
462044
457648
453230
448790
444329
439849
435351
430839
426318
421791
417259
412721
408176
403620
399051
394465
389860
385235
380589
375923
371241
366545
361839
357125
352407
347688
342971
338257
333549
328849
324156
319468
314782
310095
305406
300718
296028
291338
286649
281961
277274
272586
267898
263210
258519
253828
249136
244444
239754
235068
230388
225718
221060
216420
211801
207202
202625
198070
193540
189035
184555
180096
175657
171236
166834
162453
158094
153759
149452
145172
140923
136707
132526
128386
124287
120229
116212
112236
108304
104420
100587
96807.9
93081.9
728500
728432
728300
728101
727835
727499
727093
726616
726068
725446
724752
723984
723143
722228
721240
720178
719043
717835
716555
715204
713782
712290
710730
709103
707410
705651
703829
701944
699998
697991
695925
693801
691621
689385
687095
684751
682354
679906
677406
674856
672254
669601
666898
664143
661340
658487
655586
652637
649639
646594
643503
640368
637189
633969
630709
627409
624070
620694
617282
613836
610355
606839
603291
599709
596096
592451
588775
585066
581326
577555
573754
569923
566063
562176
558262
554323
550361
546376
542368
538337
534283
530205
526101
521971
517815
513635
509433
505211
500972
496715
492441
488154
483853
479541
475216
470875
466518
462143
457746
453326
448883
444419
439935
435433
430920
426400
421875
417345
412809
408266
403712
399142
394554
389946
385317
380667
375996
371308
366607
361896
357178
352456
347735
343016
338302
333594
328895
324203
319516
314832
310147
305461
300776
296089
291402
286715
282028
277340
272651
267961
263270
258576
253882
249187
244494
239803
235116
230433
225759
221097
216453
211830
207228
202649
198094
193563
189058
184577
180117
175677
171255
166852
162471
158112
153777
149468
145188
140938
136720
132539
128397
124297
120237
116218
112240
108304
104415
100574
96784
93041.4
730423
730351
730211
730001
729721
729369
728944
728446
727873
727225
726502
725704
724830
723881
722857
721759
720586
719340
718021
716630
715168
713637
712037
710371
708638
706841
704981
703059
701076
699034
696933
694775
692561
690293
687971
685597
683172
680696
678170
675593
672966
670289
667562
664785
661958
659082
656158
653186
650166
647099
643986
640830
637630
634390
631110
627790
624433
621039
617610
614147
610651
607122
603561
599968
596344
592688
589002
585284
581536
577757
573948
570109
566242
562347
558426
554481
550512
546521
542508
538471
534412
530328
526218
522083
517923
513739
509535
505311
501070
496813
492539
488252
483953
479643
475319
470980
466624
462249
457852
453431
448986
444519
440030
435526
431011
426490
421965
417437
412903
408362
403808
399237
394648
390037
385404
380749
376074
371381
366674
361957
357233
352508
347783
343063
338348
333641
328943
324252
319567
314885
310202
305520
300837
296153
291468
286782
282095
277407
272717
268025
263330
258634
253937
249241
244547
239855
235165
230480
225803
221137
216489
211861
207257
202676
198120
193590
189084
184602
180140
175699
171276
166873
162492
158133
153797
149487
145206
140955
136736
132554
128411
124309
120247
116226
112244
108305
104410
100562
96761.3
93004.1
732655
732577
732427
732205
731908
731535
731086
730561
729958
729278
728520
727684
726772
725782
724716
723574
722357
721066
719701
718265
716757
715180
713535
711823
710046
708204
706300
704335
702310
700226
698085
695888
693636
691330
688973
686564
684106
681597
679040
676433
673777
671072
668317
665513
662659
659758
656808
653810
650765
647673
644535
641354
638131
634867
631564
628223
624844
621429
617981
614500
610986
607441
603865
600258
596621
592954
589257
585529
581771
577983
574164
570316
566439
562536
558608
554656
550681
546683
542662
538619
534552
530461
526346
522206
518041
513854
509646
505420
501177
496917
492643
488357
484059
479749
475427
471089
466733
462358
457961
453539
449093
444623
440132
435624
431106
426584
422058
417531
412999
408458
403904
399333
394741
390128
385492
380833
376153
371454
366742
362019
357290
352561
347833
343111
338396
333690
328992
324302
319619
314939
310259
305579
300899
296217
291533
286848
282161
277471
272780
268086
263389
258691
253992
249295
244599
239906
235215
230527
225847
221178
216526
211895
207288
202705
198149
193618
189112
184628
180165
175722
171299
166896
162514
158155
153819
149508
145226
140974
136755
132572
128427
124323
120259
116235
112250
108306
104406
100551
96739.8
92969.8
735212
735127
734966
734727
734409
734011
733534
732975
732336
731617
730817
729937
728978
727940
726825
725632
724364
723020
721603
720114
718554
716924
715226
713462
711633
709741
707787
705772
703699
701569
699382
697140
694845
692498
690100
687652
685155
682610
680016
677375
674685
671946
669160
666325
663441
660510
657531
654505
651432
648313
645148
641940
638691
635401
632072
628706
625303
621865
618394
614892
611359
607795
604202
600580
596929
593248
589539
585799
582029
578229
574399
570540
566654
562743
558807
554847
550865
546859
542831
538780
534705
530607
526486
522340
518170
513978
509765
505535
501288
497027
492751
488464
484166
479857
475534
471196
466841
462465
458068
453646
449199
444728
440234
435724
431204
426679
422152
417624
413092
408551
403997
399425
394832
390217
385578
380915
376230
371526
366808
362080
357347
352613
347883
343160
338444
333738
329041
324352
319670
314992
310314
305637
300959
296277
291594
286909
282221
277530
272837
268141
263443
258743
254043
249345
244649
239955
235262
230573
225890
221218
216562
211929
207319
202735
198178
193647
189140
184655
180191
175747
171323
166920
162538
158179
153842
149531
145248
140996
136776
132591
128445
124339
120272
116245
112256
108308
104402
100539
96719.2
92937.9
738114
738021
737845
737587
737244
736817
736304
735707
735025
734258
733409
732477
731463
730369
729196
727945
726617
725213
723735
722184
720563
718873
717115
715291
713403
711453
709443
707373
705245
703062
700823
698531
696187
693793
691348
688855
686314
683726
681090
678408
675679
672903
670080
667210
664293
661329
658318
655261
652158
649010
645816
642580
639302
635985
632628
629235
625806
622342
618847
615321
611766
608182
604570
600931
597263
593567
589843
586089
582305
578492
574649
570779
566884
562964
559020
555053
551063
547050
543013
538954
534871
530765
526636
522484
518308
514109
509891
505655
501404
497139
492861
488572
484273
479962
475638
471299
466943
462566
458168
453746
449299
444827
440332
435821
431299
426771
422242
417712
413178
408638
404083
399510
394915
390298
385656
380990
376301
371592
366868
362136
357400
352664
347932
343207
338492
333785
329088
324399
319718
315041
310365
305690
301013
296332
291648
286962
282272
277580
272885
268189
263490
258789
254089
249390
244694
240000
235306
230614
225929
221255
216597
211962
207350
202766
198208
193676
189169
184683
180218
175773
171348
166945
162563
158203
153866
149555
145271
141018
136797
132612
128464
124356
120286
116255
112263
108310
104398
100528
96699.1
92907.7
741388
741284
741092
740810
740438
739975
739421
738777
738045
737224
736316
735323
734246
733086
731846
730525
729127
727652
726104
724482
722791
721030
719204
717312
715358
713342
711266
709133
706943
704699
702402
700052
697652
695203
692705
690160
687568
684930
682248
679520
676747
673929
671066
668157
665202
662202
659156
656066
652931
649751
646527
643261
639954
636607
633222
629799
626342
622852
619331
615780
612201
608596
604964
601305
597620
593906
590164
586393
582594
578767
574912
571031
567126
563198
559247
555272
551275
547253
543208
539140
535049
530934
526797
522637
518453
514247
510022
505779
501522
497252
492969
488677
484375
480062
475736
471394
467036
462657
458257
453834
449387
444916
440422
435911
431388
426857
422325
417792
413256
408713
404158
399583
394987
390368
385723
381053
376360
371647
366920
362186
357448
352711
347978
343253
338536
333829
329131
324442
319760
315084
310410
305737
301059
296377
291692
287004
282312
277618
272923
268225
263526
258826
254126
249428
244733
240038
235343
230650
225963
221288
216629
211992
207380
202795
198236
193705
189197
184711
180246
175800
171374
166970
162588
158228
153891
149579
145295
141041
136819
132633
128483
124372
120299
116265
112269
108311
104393
100516
96679.1
92878.6
745066
744951
744739
744429
744021
743516
742914
742216
741423
740538
739562
738497
737344
736107
734786
733384
731903
730346
728714
727011
725238
723397
721491
719521
717489
715397
713246
711040
708778
706464
704099
701684
699219
696708
694149
691545
688897
686205
683469
680691
677870
675005
672097
669146
666150
663111
660028
656902
653732
650519
647264
643967
640629
637252
633837
630386
626900
623383
619835
616259
612656
609028
605375
601696
597990
594257
590496
586708
582892
579050
575183
571291
567378
563442
559484
555503
551498
547468
543414
539337
535235
531111
526965
522796
518603
514389
510155
505904
501640
497364
493076
488779
484473
480156
475826
471480
467118
462735
458333
453909
449463
444993
440501
435990
431467
426934
422398
417861
413322
408777
404219
399642
395044
390422
385775
381102
376405
371690
366962
362227
357490
352753
348020
343295
338577
333869
329169
324478
319796
315120
310447
305773
301095
296411
291723
287033
282340
277644
272948
268250
263551
258852
254154
249457
244763
240068
235373
230679
225992
221316
216657
212020
207407
202822
198264
193732
189225
184739
180273
175827
171400
166995
162613
158253
153915
149602
145318
141063
136841
132653
128502
124388
120312
116274
112274
108311
104387
100504
96659
92850.4
749193
749064
748827
748484
748034
747479
746818
746054
745189
744226
743167
742014
740771
739440
738024
736525
734947
733293
731564
729765
727896
725961
723962
721901
719779
717600
715364
713074
710731
708337
705894
703404
700868
698286
695661
692992
690281
687529
684735
681901
679027
676112
673156
670158
667118
664037
660914
657749
654543
651296
648007
644679
641311
637904
634459
630979
627466
623921
620348
616747
613121
609470
605795
602094
598368
594614
590834
587027
583194
579338
575458
571557
567635
563692
559727
555740
551728
547690
543627
539539
535427
531292
527135
522955
518753
514529
510286
506028
501756
497473
493180
488877
484565
480242
475907
471556
467188
462802
458396
453971
449524
445055
440566
436057
431533
426999
422460
417919
413376
408827
404266
399686
395085
390460
385810
381134
376435
371719
366991
362258
357524
352789
348057
343331
338613
333902
329200
324507
319823
315146
310473
305798
301118
296432
291741
287049
282353
277656
272959
268261
263564
258867
254171
249477
244783
240089
235393
230700
226013
221338
216680
212044
207433
202847
198290
193759
189252
184766
180300
175853
171426
167021
162637
158276
153938
149625
145340
141085
136862
132672
128519
124403
120324
116282
112277
108310
104380
100490
96638.6
92822.8
753823
753675
753409
753024
752521
751901
751166
750319
749364
748303
747141
745882
744530
743088
741558
739946
738252
736482
734639
732726
730745
728701
726595
724430
722207
719929
717597
715213
712779
710297
707768
705194
702578
699920
697220
694481
691701
688884
686028
683134
680202
677233
674224
671176
668090
664964
661798
658593
655349
652066
648744
645384
641985
638549
635076
631568
628028
624457
620859
617234
613585
609912
606214
602492
598745
594971
591171
587346
583497
579625
575733
571822
567891
563941
559971
555977
551958
547913
543840
539740
535616
531469
527300
523110
518898
514666
510415
506148
501868
497578
493279
488970
484651
480321
475979
471622
467248
462857
458447
454018
449571
445103
440615
436109
431585
427050
422508
417964
413417
408864
404298
399714
395109
390480
385826
381148
376449
371733
367008
362279
357549
352817
348087
343361
338641
333929
329224
324528
319841
315162
310486
305810
301127
296438
291745
287050
282353
277655
272957
268260
263565
258870
254177
249485
244793
240099
235405
230713
226028
221355
216700
212066
207456
202871
198314
193784
189278
184793
180326
175879
171452
167046
162661
158300
153961
149648
145362
141106
136881
132690
128535
124416
120334
116288
112279
108307
104372
100477
96618.4
92796.1
759185
759014
758706
758263
757686
756978
756142
755184
754109
752922
751630
750237
748748
747167
745497
743742
741907
739995
738013
735964
733851
731679
729450
727165
724827
722437
719996
717506
714969
712387
709762
707095
704389
701644
698861
696042
693188
690298
687373
684413
681419
678389
675323
672220
669081
665905
662693
659445
656161
652840
649483
646090
642660
639194
635693
632158
628591
624996
621374
617726
614054
610357
606637
602894
599125
595331
591511
587668
583802
579916
576011
572088
568147
564190
560212
556212
552186
548132
544049
539938
535802
531642
527461
523259
519038
514798
510539
506265
501978
497681
493374
489058
484731
480393
476043
471678
467298
462900
458485
454053
449604
445136
440650
436145
431623
427088
422544
417997
413446
408888
404317
399727
395116
390482
385825
381146
376447
371734
367013
362290
357565
352837
348108
343382
338661
333947
329240
324540
319850
315167
310488
305808
301123
296432
291736
287038
282340
277641
272943
268248
263554
258863
254173
249484
244793
240100
235407
230718
226036
221367
216716
212085
207478
202895
198339
193809
189304
184819
180353
175906
171478
167071
162685
158323
153984
149670
145383
141126
136900
132708
128550
124429
120343
116294
112281
108304
104365
100463
96599.3
92771.2
765123
764918
764554
764030
763352
762526
761557
760455
759227
757883
756429
754871
753216
751466
749627
747704
745704
743631
741493
739293
737037
734726
732364
729951
727490
724980
722424
719823
717179
714494
711769
709006
706206
703371
700501
697599
694666
691700
688703
685674
682614
679521
676394
673234
670041
666814
663555
660262
656937
653578
650185
646759
643298
639803
636274
632714
629125
625507
621863
618193
614499
610781
607040
603275
599486
595672
591835
587974
584093
580192
576273
572338
568387
564420
560435
556428
552393
548330
544237
540116
535969
531797
527605
523394
519164
514917
510652
506370
502076
497772
493458
489133
484799
480453
476094
471722
467335
462930
458509
454073
449622
445154
440668
436165
431644
427109
422565
418015
413459
408895
404317
399721
395104
390465
385805
381125
376428
371720
367006
362289
357569
352845
348119
343393
338671
333955
329245
324543
319848
315160
310477
305793
301105
296411
291714
287014
282314
277615
272918
268224
263533
258845
254158
249471
244782
240091
235401
230715
226039
221375
216729
212102
207498
202918
198363
193834
189328
184844
180378
175931
171503
167095
162709
158346
154007
149692
145405
141146
136919
132724
128564
124440
120352
116299
112282
108301
104357
100451
96581.5
92748.4
771110
770866
770429
769806
769004
768034
766907
765635
764231
762705
761067
759325
757486
755555
753538
751442
749274
747040
744748
742402
740007
737564
735076
732542
729963
727341
724677
721971
719226
716445
713627
710773
707886
704966
702016
699036
696027
692990
689924
686830
683706
680553
677369
674155
670910
667636
664331
660996
657631
654236
650809
647351
643861
640339
636787
633205
629594
625957
622294
618605
614892
611155
607394
603610
599803
595973
592120
588245
584349
580435
576504
572558
568596
564619
560625
556609
552566
548494
544393
540263
536107
531927
527727
523507
519270
515016
510744
506457
502156
497845
493523
489192
484850
480497
476132
471753
467359
462948
458522
454082
449627
445158
440672
436169
431649
427115
422570
418018
413457
408886
404302
399699
395076
390434
385772
381093
376399
371695
366987
362276
357562
352842
348119
343394
338672
333954
329242
324537
319838
315145
310457
305769
301078
296383
291684
286982
282281
277582
272887
268195
263507
258820
254136
249450
244763
240076
235390
230709
226038
221381
216740
212119
207518
202940
198387
193858
189353
184868
180402
175955
171527
167120
162734
158370
154031
149716
145427
141168
136938
132742
128579
124452
120361
116305
112285
108300
104352
100441
96567.1
92729.6
777124
776829
776302
775552
774597
773451
772135
770664
769055
767322
765481
763540
761508
759391
757194
754926
752593
750204
747764
745281
742756
740190
737585
734939
732252
729525
726759
723955
721117
718245
715340
712404
709436
706439
703414
700361
697283
694179
691048
687892
684709
681500
678263
674998
671705
668385
665038
661663
658260
654830
651372
647883
644366
640819
637244
633642
630012
626357
622676
618970
615240
611485
607707
603907
600084
596239
592372
588484
584576
580650
576708
572751
568778
564791
560785
556759
552707
548627
544518
540383
536221
532035
527828
523601
519357
515096
510819
506525
502219
497901
493573
489235
484888
480528
476157
471772
467372
462956
458525
454081
449623
445152
440665
436161
431641
427107
422562
418006
413440
408864
404273
399665
395038
390393
385730
381052
376361
371662
366960
362255
357546
352830
348109
343386
338664
333946
329232
324524
319821
315124
310431
305740
301046
296349
291649
286947
282246
277547
272853
268163
263476
258792
254108
249425
244741
240057
235376
230702
226037
221386
216752
212135
207539
202964
198411
193883
189377
184892
180427
175980
171553
167145
162760
158397
154057
149741
145452
141191
136960
132761
128597
124467
120373
116314
112290
108302
104351
100436
96557.7
92716.4
783158
782798
782153
781243
780093
778732
777188
775484
773644
771687
769630
767484
765257
762955
760584
758150
755662
753125
750547
747934
745289
742610
739897
737147
734359
731534
728674
725780
722854
719899
716914
713901
710860
707792
704699
701581
698439
695273
692083
688870
685632
682371
679085
675773
672436
669074
665687
662274
658837
655374
651885
648368
644825
641254
637658
634036
630389
626716
623018
619296
615550
611779
607986
604170
600333