/*--------------------------------*- C++ -*----------------------------------*\
  =========                 |
  \\      /  F ield         | OpenFOAM: The Open Source CFD Toolbox
   \\    /   O peration     | Website:  https://openfoam.org
    \\  /    A nd           | Version:  6
     \\/     M anipulation  |
\*---------------------------------------------------------------------------*/
FoamFile
{
    version     2.0;
    format      ascii;
    class       volVectorField;
    location    "0.5";
    object      U;
}
// * * * * * * * * * * * * * * * * * * * * * * * * * * * * * * * * * * * * * //

dimensions      [0 1 -1 0 0 0 0];

internalField   nonuniform List<vector> 
12225
(
(9.89553 -0.00856571 0)
(9.71971 0.0305709 0)
(9.40117 0.0981686 0)
(9.00621 0.0857155 0)
(8.63102 0.0548043 0)
(8.33301 0.0392487 0)
(8.10978 0.0334627 0)
(7.92927 0.0349343 0)
(7.74681 0.0477537 0)
(7.52315 0.0672831 0)
(7.25036 0.082384 0)
(6.9538 0.0837814 0)
(6.66808 0.0745541 0)
(6.4169 0.0585327 0)
(6.19184 0.0487723 0)
(6.01933 0.0322783 0)
(5.82397 0.0428269 0)
(5.68707 0.0222836 0)
(10.1238 0.120927 0)
(10.0952 0.0856094 0)
(10.0766 0.0914618 0)
(10.0359 0.115085 0)
(9.99549 0.110513 0)
(9.97566 0.0853559 0)
(9.96181 0.0630198 0)
(9.9404 0.0547305 0)
(9.9196 0.0605669 0)
(9.90658 0.0749011 0)
(9.89853 0.0897887 0)
(9.88849 0.0989445 0)
(9.87356 0.0989757 0)
(9.85416 0.0957271 0)
(9.83063 0.0888032 0)
(9.80461 0.0872025 0)
(9.77556 0.0938377 0)
(9.72707 0.0967439 0)
(9.9463 0.0366385 0)
(10.0167 0.0462835 0)
(10.1405 0.0333424 0)
(10.1985 0.0532739 0)
(10.178 0.0595482 0)
(10.1295 0.0548723 0)
(10.0847 0.0494127 0)
(10.0589 0.04668 0)
(10.0645 0.0498317 0)
(10.1025 0.0596375 0)
(10.1607 0.0725852 0)
(10.2178 0.0824941 0)
(10.2551 0.085513 0)
(10.2639 0.0830112 0)
(10.2525 0.0778823 0)
(10.2334 0.0759544 0)
(10.2215 0.0801875 0)
(10.2266 0.0936002 0)
(10.0662 0.166875 0)
(10.0316 0.107534 0)
(10.0731 0.113109 0)
(10.1359 0.12631 0)
(10.1671 0.119048 0)
(10.1832 0.107458 0)
(10.206 0.0954385 0)
(10.2302 0.0828721 0)
(10.2364 0.0741678 0)
(10.214 0.073743 0)
(10.1702 0.0818226 0)
(10.1208 0.0937991 0)
(10.0783 0.103812 0)
(10.0498 0.108071 0)
(10.0385 0.105489 0)
(10.0467 0.0990661 0)
(10.0722 0.0932134 0)
(10.1179 0.095103 0)
(9.98445 0.086681 0)
(10.0533 0.0480094 0)
(10.0833 0.0292612 0)
(10.0741 0.0676285 0)
(10.0354 0.0669159 0)
(10.0383 0.0311132 0)
(10.0988 0.000395554 0)
(10.1762 0.000129224 0)
(10.2257 0.0268761 0)
(10.2287 0.0605462 0)
(10.1992 0.0843136 0)
(10.1639 0.0926908 0)
(10.1421 0.0884237 0)
(10.1396 0.0772908 0)
(10.1518 0.064538 0)
(10.1718 0.0550216 0)
(10.1946 0.0515321 0)
(10.2168 0.0545134 0)
(10.1002 0.0684179 0)
(10.2626 -0.00622457 0)
(10.2413 0.0258626 0)
(10.1728 0.100212 0)
(10.0896 0.130928 0)
(9.99919 0.117666 0)
(9.92896 0.0874717 0)
(9.9074 0.0668985 0)
(9.93569 0.0679102 0)
(9.99075 0.085891 0)
(10.049 0.108626 0)
(10.0987 0.124702 0)
(10.1371 0.128158 0)
(10.1668 0.119253 0)
(10.1908 0.102409 0)
(10.2127 0.0839632 0)
(10.2331 0.0688381 0)
(10.2533 0.0592314 0)
(9.83433 -0.0356858 0)
(9.94652 0.058444 0)
(9.92533 0.106446 0)
(9.91086 0.117795 0)
(9.96739 0.0998925 0)
(10.0548 0.0589816 0)
(10.1063 0.0175709 0)
(10.0991 2.71727e-05 0)
(10.0579 0.009714 0)
(10.0232 0.0320775 0)
(10.0224 0.0514147 0)
(10.0605 0.0601588 0)
(10.1229 0.0587137 0)
(10.1891 0.0519222 0)
(10.2385 0.0450805 0)
(10.2639 0.0416182 0)
(10.2624 0.0423454 0)
(10.2463 0.0447428 0)
(10.1862 -0.0747045 0)
(10.0877 0.0356193 0)
(9.98733 0.0957147 0)
(9.98009 0.125776 0)
(10.0326 0.111472 0)
(10.0617 0.0720795 0)
(10.0415 0.0471625 0)
(10.0077 0.0503733 0)
(9.99637 0.0668128 0)
(10.0154 0.0775909 0)
(10.0543 0.0760074 0)
(10.0973 0.0658773 0)
(10.1309 0.0541773 0)
(10.1486 0.0463184 0)
(10.1504 0.044556 0)
(10.1431 0.0477846 0)
(10.1316 0.0532074 0)
(10.1245 0.0558046 0)
(9.77989 -0.0231956 0)
(9.7841 0.0370862 0)
(9.86127 0.055526 0)
(9.89675 0.0452473 0)
(9.92091 0.0494713 0)
(9.93912 0.0639512 0)
(9.96297 0.0661253 0)
(10.0039 0.0517149 0)
(10.0537 0.0318599 0)
(10.0941 0.0186275 0)
(10.1154 0.0179295 0)
(10.1205 0.028724 0)
(10.1158 0.0451749 0)
(10.1083 0.0619581 0)
(10.1002 0.0747502 0)
(10.0949 0.0824761 0)
(10.0912 0.0838429 0)
(10.0918 0.0798497 0)
(10.1136 0.0832057 0)
(10.1555 0.0504206 0)
(10.0672 0.0838397 0)
(10.0163 0.12246 0)
(10.0129 0.114714 0)
(10.034 0.0669827 0)
(10.0604 0.0198947 0)
(10.0764 0.00421762 0)
(10.0666 0.0191123 0)
(10.0292 0.0435429 0)
(9.97983 0.0584572 0)
(9.9407 0.0584731 0)
(9.92321 0.0481543 0)
(9.92691 0.0358484 0)
(9.94503 0.0277104 0)
(9.9677 0.0246389 0)
(9.991 0.0262176 0)
(10.0069 0.0271137 0)
(10.2055 0.0307278 0)
(10.0914 0.140707 0)
(9.99068 0.149294 0)
(9.98966 0.0919667 0)
(10.053 0.0384141 0)
(10.1184 0.00990427 0)
(10.143 0.00816487 0)
(10.1259 0.0270324 0)
(10.087 0.0533224 0)
(10.0466 0.0729886 0)
(10.0189 0.079182 0)
(10.0093 0.0744497 0)
(10.0172 0.0665151 0)
(10.035 0.0614556 0)
(10.0598 0.0622676 0)
(10.0841 0.0674255 0)
(10.1088 0.0736483 0)
(10.1262 0.0785075 0)
(9.84357 -0.02582 0)
(9.87579 0.0730053 0)
(9.98039 0.0692015 0)
(10.0861 0.0554518 0)
(10.1575 0.0527814 0)
(10.172 0.0439008 0)
(10.1385 0.0361742 0)
(10.0878 0.0417401 0)
(10.0457 0.0569696 0)
(10.0243 0.0684852 0)
(10.0268 0.0671171 0)
(10.0485 0.0523768 0)
(10.0796 0.0310139 0)
(10.11 0.0107942 0)
(10.1321 -0.00293621 0)
(10.1449 -0.00888548 0)
(10.1487 -0.0078115 0)
(10.1485 -0.00442184 0)
(10.0727 0.164831 0)
(10.1864 0.157263 0)
(10.1624 0.088912 0)
(10.1175 0.0300055 0)
(10.1298 0.0130935 0)
(10.1605 0.0322837 0)
(10.1741 0.0711248 0)
(10.1741 0.106261 0)
(10.1758 0.117487 0)
(10.1854 0.100023 0)
(10.1976 0.0649557 0)
(10.2034 0.0297785 0)
(10.1965 0.00858018 0)
(10.1781 0.00701289 0)
(10.1546 0.0217339 0)
(10.1333 0.0447206 0)
(10.1182 0.0673702 0)
(10.1115 0.0831778 0)
(9.98752 0.0652008 0)
(10.0429 0.0911043 0)
(9.97146 0.099679 0)
(9.89668 0.0746621 0)
(9.87592 0.0180491 0)
(9.91137 -0.033747 0)
(9.9929 -0.0542341 0)
(10.0984 -0.0376497 0)
(10.1959 0.00156823 0)
(10.2578 0.0436754 0)
(10.273 0.0756039 0)
(10.2464 0.091748 0)
(10.1947 0.0919758 0)
(10.1368 0.0788555 0)
(10.0905 0.057496 0)
(10.0626 0.0335695 0)
(10.0572 0.0113175 0)
(10.0666 -0.00414681 0)
(10.0635 0.108701 0)
(10.3101 0.0992634 0)
(10.3492 0.145544 0)
(10.2846 0.111508 0)
(10.1897 0.0569384 0)
(10.0784 0.0358368 0)
(9.97011 0.0356359 0)
(9.89693 0.033811 0)
(9.87369 0.0282129 0)
(9.89446 0.0274442 0)
(9.94374 0.0361985 0)
(10.0035 0.0501064 0)
(10.0592 0.0621732 0)
(10.1026 0.067276 0)
(10.1324 0.0653388 0)
(10.1521 0.0592291 0)
(10.1648 0.0519007 0)
(10.1766 0.0474511 0)
(10.037 0.0366212 0)
(9.93047 -0.000631874 0)
(9.89618 0.0958442 0)
(9.93564 0.138172 0)
(10.0038 0.109014 0)
(10.0418 0.0669282 0)
(10.0379 0.0432612 0)
(10.006 0.0336166 0)
(9.96624 0.0242238 0)
(9.93745 0.010724 0)
(9.92972 -0.0011101 0)
(9.94017 -0.00530353 0)
(9.95761 -0.00125718 0)
(9.97335 0.00645528 0)
(9.98173 0.00986479 0)
(9.9875 0.00710412 0)
(9.99013 -0.00459563 0)
(10 -0.0170154 0)
(10.0943 0.295147 0)
(10.002 0.200572 0)
(10.0224 0.156442 0)
(10.0626 0.0907079 0)
(10.0512 0.0423985 0)
(9.99135 0.04887 0)
(9.92823 0.0753342 0)
(9.89618 0.0812211 0)
(9.89551 0.0606517 0)
(9.90962 0.0319902 0)
(9.92383 0.0146796 0)
(9.9318 0.0159567 0)
(9.93296 0.0290718 0)
(9.93194 0.0424735 0)
(9.93036 0.0450234 0)
(9.93014 0.034155 0)
(9.92806 0.0122393 0)
(9.92442 -0.0140232 0)
(9.80709 0.186116 0)
(9.84425 0.0316306 0)
(9.89125 -0.0256617 0)
(9.91634 0.0482681 0)
(9.94391 0.140418 0)
(9.96182 0.18705 0)
(9.96979 0.17453 0)
(9.98239 0.117016 0)
(10.0003 0.0460511 0)
(10.0184 -0.00826925 0)
(10.0367 -0.0335418 0)
(10.0552 -0.0337622 0)
(10.0701 -0.0204666 0)
(10.0763 -0.00280882 0)
(10.0706 0.0134715 0)
(10.0524 0.0275285 0)
(10.0255 0.0392997 0)
(9.99304 0.0481044 0)
(9.97739 0.0405008 0)
(9.9071 0.0728483 0)
(9.84645 0.0531279 0)
(9.85552 0.0221425 0)
(9.93101 0.0062361 0)
(10.0435 0.00294229 0)
(10.126 0.00492127 0)
(10.1453 0.00106026 0)
(10.114 -0.0126713 0)
(10.0621 -0.0289185 0)
(10.0157 -0.0350063 0)
(9.98939 -0.0208386 0)
(9.98589 0.0143227 0)
(9.99904 0.0616064 0)
(10.0209 0.10426 0)
(10.0431 0.128075 0)
(10.0637 0.125179 0)
(10.0776 0.0946519 0)
(10.064 -0.0732012 0)
(10.0733 0.11649 0)
(10.1244 0.112479 0)
(10.1183 -0.0264527 0)
(10.0911 -0.119757 0)
(10.092 -0.0960537 0)
(10.1201 0.00880205 0)
(10.1566 0.116861 0)
(10.1894 0.166183 0)
(10.2073 0.142458 0)
(10.204 0.0721297 0)
(10.1851 -0.0054751 0)
(10.165 -0.0610014 0)
(10.1555 -0.0846064 0)
(10.1609 -0.0789156 0)
(10.1773 -0.054881 0)
(10.1985 -0.0211543 0)
(10.2158 0.0139727 0)
(9.80099 0.00232797 0)
(9.94121 -0.0658336 0)
(10.0374 -0.0330923 0)
(10.0663 -0.0367582 0)
(10.0426 -0.0694753 0)
(10.0175 -0.0896236 0)
(10.03 -0.0792134 0)
(10.0756 -0.0413728 0)
(10.1293 0.00734711 0)
(10.1691 0.0501899 0)
(10.1833 0.0768059 0)
(10.1723 0.083134 0)
(10.1467 0.0711593 0)
(10.1185 0.0491241 0)
(10.0958 0.0267294 0)
(10.0819 0.0112275 0)
(10.0761 0.00517649 0)
(10.0781 0.00779549 0)
(10.1936 -0.0207561 0)
(10.035 -0.0532975 0)
(9.99033 0.0202032 0)
(9.95895 0.0451792 0)
(9.9047 0.0140802 0)
(9.83528 -0.0305378 0)
(9.77983 -0.0539816 0)
(9.75406 -0.0494883 0)
(9.76199 -0.0283083 0)
(9.80134 -0.00467455 0)
(9.86236 0.0111554 0)
(9.9327 0.0152107 0)
(10.0019 0.00964571 0)
(10.0618 0.000362614 0)
(10.1069 -0.0059539 0)
(10.1353 -0.00619348 0)
(10.1502 0.000447923 0)
(10.1556 0.010568 0)
(10.0329 -0.000407581 0)
(10.0135 0.0225703 0)
(10.0125 0.038219 0)
(10.0539 0.0092618 0)
(10.0951 -0.0180436 0)
(10.1127 -0.0271262 0)
(10.1073 -0.0194016 0)
(10.0856 -0.00481865 0)
(10.0676 0.00199528 0)
(10.0721 -0.00789351 0)
(10.0984 -0.0320374 0)
(10.1326 -0.0598202 0)
(10.1622 -0.0794463 0)
(10.1818 -0.0836186 0)
(10.1926 -0.0720211 0)
(10.1986 -0.05027 0)
(10.2044 -0.0253616 0)
(10.2134 -0.00511505 0)
(9.89986 -0.038887 0)
(9.96006 -0.0860135 0)
(10.0816 -0.0523752 0)
(10.1308 -0.0178809 0)
(10.1074 0.0128885 0)
(10.0507 0.0296676 0)
(10.0078 0.0191611 0)
(9.99117 -0.0120107 0)
(9.99025 -0.0465717 0)
(9.99063 -0.0711601 0)
(9.98065 -0.0809803 0)
(9.95873 -0.0783005 0)
(9.9344 -0.0688272 0)
(9.91929 -0.0584253 0)
(9.91982 -0.049771 0)
(9.93653 -0.0429626 0)
(9.96588 -0.0373568 0)
(10.0045 -0.0306861 0)
(10.1382 -0.00359203 0)
(10.0767 -0.047688 0)
(10.0795 -0.0492492 0)
(10.0286 -0.0251832 0)
(9.96139 -0.012875 0)
(9.91392 -0.00997074 0)
(9.90773 -0.00861447 0)
(9.93794 -0.00564517 0)
(9.99084 -0.00120605 0)
(10.0545 0.00101406 0)
(10.1158 -0.00294991 0)
(10.1638 -0.0139224 0)
(10.1927 -0.0294334 0)
(10.2031 -0.0456476 0)
(10.1972 -0.0595976 0)
(10.1814 -0.0694394 0)
(10.1607 -0.0755251 0)
(10.142 -0.0783069 0)
(9.97264 0.0106188 0)
(9.94899 -0.0360318 0)
(9.93842 0.00116634 0)
(9.94494 0.077703 0)
(9.97023 0.113096 0)
(9.98128 0.0909711 0)
(9.9823 0.0238861 0)
(9.99276 -0.0548178 0)
(10.0213 -0.112576 0)
(10.0633 -0.138669 0)
(10.1048 -0.139639 0)
(10.1315 -0.125566 0)
(10.1372 -0.104201 0)
(10.1247 -0.0806112 0)
(10.1009 -0.0586454 0)
(10.074 -0.0409578 0)
(10.0498 -0.0290163 0)
(10.0318 -0.0239963 0)
(10.0222 0.0118111 0)
(9.89883 -0.0850265 0)
(9.94405 -0.0840169 0)
(10.0328 -0.0386674 0)
(10.1625 -0.0120471 0)
(10.2714 -0.00177964 0)
(10.308 -0.011897 0)
(10.2703 -0.0412781 0)
(10.1877 -0.072343 0)
(10.0971 -0.0873373 0)
(10.0269 -0.0801443 0)
(9.99068 -0.0565338 0)
(9.98931 -0.0288838 0)
(10.0153 -0.00874858 0)
(10.0579 -0.00195619 0)
(10.1053 -0.00739544 0)
(10.1503 -0.0207224 0)
(10.1849 -0.0363153 0)
(10.0682 -0.0678075 0)
(10.1371 -0.00504297 0)
(10.0837 -0.0526576 0)
(10.1013 -0.0470214 0)
(10.1615 -0.0150577 0)
(10.2195 0.00461706 0)
(10.2631 0.00782735 0)
(10.293 0.000556591 0)
(10.3016 -0.0140464 0)
(10.2845 -0.0370957 0)
(10.2503 -0.0670423 0)
(10.2156 -0.096606 0)
(10.1943 -0.117614 0)
(10.1916 -0.125669 0)
(10.2064 -0.120955 0)
(10.232 -0.107559 0)
(10.2625 -0.0892766 0)
(10.2904 -0.0719182 0)
(10.0191 -0.114509 0)
(10.1012 -0.0776949 0)
(10.0507 -0.0799304 0)
(9.93908 -0.0792524 0)
(9.94847 -0.0546415 0)
(10.048 -0.0330662 0)
(10.1519 -0.0290845 0)
(10.2241 -0.0374312 0)
(10.2635 -0.0445409 0)
(10.2778 -0.0425174 0)
(10.2732 -0.0330898 0)
(10.2538 -0.0232678 0)
(10.2234 -0.0196862 0)
(10.1874 -0.0256779 0)
(10.1515 -0.0392422 0)
(10.1211 -0.0555275 0)
(10.097 -0.0693333 0)
(10.0812 -0.076255 0)
(9.84907 -0.0499279 0)
(9.67446 0.0286207 0)
(9.61309 0.0399677 0)
(9.47223 0.00464169 0)
(9.30971 -0.0416759 0)
(9.14577 -0.0709748 0)
(8.98124 -0.0753967 0)
(8.83182 -0.0665216 0)
(8.70059 -0.0592778 0)
(8.5769 -0.060095 0)
(8.45427 -0.0662593 0)
(8.33403 -0.0721021 0)
(8.21671 -0.0744169 0)
(8.09948 -0.0733441 0)
(7.97683 -0.0700097 0)
(7.84955 -0.0652859 0)
(7.71808 -0.0592273 0)
(7.59402 -0.0520859 0)
(-0.0777132 0.0471848 -8.02851e-21)
(-0.199079 -0.0429201 7.9643e-21)
(-0.186779 -0.094009 0)
(-0.0634201 -0.164311 0)
(0.118812 -0.187284 0)
(0.313731 -0.152287 -7.63783e-21)
(0.475542 -0.0769062 0)
(0.562414 0.00953785 0)
(0.549614 0.0864571 0)
(0.430513 0.140143 0)
(0.216835 0.162312 7.30864e-21)
(-0.0692343 0.145234 0)
(-0.376468 0.0807032 0)
(-0.621636 0.00218378 0)
(-0.791634 -0.0217552 0)
(-0.897439 0.0170802 7.04836e-21)
(-0.93237 0.0468318 0)
(-0.922353 0.0197773 0)
(-0.921906 -0.011814 0)
(-0.977099 0.0229738 0)
(-1.13877 0.181611 0)
(-1.47542 0.491738 0)
(-2.03991 0.751363 0)
(-2.654 0.637432 7.06196e-21)
(-3.07537 0.364966 -7.11136e-21)
(-3.37158 0.266094 7.15308e-21)
(-3.6214 0.181637 7.18529e-21)
(-3.77723 0.0829398 0)
(-3.88917 0.0739995 0)
(-4.00306 0.0707392 -7.23569e-21)
(-4.09476 0.0561549 -7.24368e-21)
(-4.17937 0.0729571 0)
(-4.27887 0.0840787 0)
(-4.38324 0.0781614 -7.25087e-21)
(-4.48783 0.0781784 0)
(-4.59375 0.0765697 0)
(-4.69386 0.0653142 7.20673e-21)
(-4.78174 0.0517736 0)
(-4.85455 0.037214 7.11841e-21)
(-4.90829 0.0190007 1.40978e-20)
(-4.9381 -0.00157407 0)
(-4.93981 -0.0227474 0)
(-4.91353 -0.0443667 0)
(-4.8586 -0.0661315 0)
(-4.77469 -0.0874935 0)
(-4.65922 -0.109045 1.23574e-20)
(-4.50707 -0.132442 1.19208e-20)
(-4.31164 -0.159193 1.14561e-20)
(-4.06721 -0.188714 0)
(-3.77292 -0.216637 -1.04829e-20)
(-3.43636 -0.235947 0)
(-3.0731 -0.241775 9.52313e-21)
(-2.70193 -0.235363 9.07092e-21)
(-2.33937 -0.222416 0)
(-1.99619 -0.208384 0)
(-1.67738 -0.19576 0)
(-1.38429 -0.184081 7.50564e-21)
(-1.11736 -0.171215 0)
(-0.878333 -0.154557 0)
(-0.67073 -0.134309 0)
(-0.496962 -0.115389 0)
(-0.354312 -0.104042 0)
(-0.234604 -0.10205 0)
(-0.126419 -0.106664 0)
(-0.0145657 -0.114444 0)
(0.116072 -0.123749 -5.06713e-21)
(0.277135 -0.132886 0)
(0.467419 -0.141878 0)
(0.684785 -0.14895 4.45235e-21)
(0.917928 -0.15196 4.26414e-21)
(1.16203 -0.158782 0)
(1.42264 -0.158822 -3.90199e-21)
(1.68497 -0.162569 3.72429e-21)
(1.96841 -0.17878 0)
(2.27056 -0.168523 -3.37347e-21)
(2.56385 -0.171209 0)
(2.89347 -0.209994 0)
(3.24896 -0.179924 2.8656e-21)
(3.57298 -0.162696 0)
(3.94114 -0.236694 -2.58137e-21)
(4.29142 -0.125561 0)
(4.48316 -0.0322127 2.34541e-21)
(4.58321 -0.171904 2.23224e-21)
(4.51646 0.167145 2.05865e-21)
(3.85131 0.701679 3.75748e-21)
(2.77328 0.34959 -3.68875e-21)
(1.96431 -0.199667 0)
(1.35064 -0.174807 0)
(0.861666 -0.0625108 0)
(0.741231 -0.325338 -3.52557e-21)
(1.19121 -0.54658 -3.06697e-21)
(1.74444 0.00295396 2.41285e-21)
(1.17749 0.70332 0)
(1.01059 0.283401 -1.63981e-21)
(1.45131 -0.419876 -1.22815e-21)
(2.31971 -0.609991 -1.23595e-21)
(2.03162 0.194262 0)
(-0.654803 1.12486 0)
(-3.36156 1.16155 0)
(-5.45104 0.918754 -6.89238e-21)
(-7.09386 0.69124 0)
(-8.35239 0.509613 0)
(-9.30313 0.376977 1.59318e-20)
(-10.0246 0.282325 0)
(-10.5761 0.216124 0)
(-11.0046 0.168445 2.19753e-20)
(-11.341 0.132175 0)
(-11.6026 0.101731 0)
(-11.7978 0.0739123 -2.52651e-20)
(-11.9276 0.0464033 -2.5844e-20)
(-11.9901 0.0180266 0)
(-11.9798 -0.0107495 2.62111e-20)
(-11.9003 -0.0400786 0)
(-11.7464 -0.070191 -2.54929e-20)
(-11.5179 -0.0998568 0)
(-11.2158 -0.128133 -2.3754e-20)
(-10.8441 -0.153932 -2.25633e-20)
(-10.4089 -0.176321 0)
(-9.91839 -0.194722 0)
(-9.38205 -0.208776 0)
(-8.81004 -0.218448 0)
(-8.21252 -0.223925 0)
(-7.59937 -0.225543 0)
(-6.9797 -0.223747 0)
(-6.36173 -0.219029 -1.07256e-20)
(-5.7526 -0.21191 9.48151e-21)
(-5.15839 -0.2029 0)
(-4.58401 -0.19251 0)
(-4.03325 -0.18123 0)
(-3.50882 -0.169507 0)
(-3.01241 -0.157737 1.00368e-20)
(-2.54477 -0.146259 0)
(-2.10587 -0.135331 -7.94585e-21)
(-1.69502 -0.125143 7.14919e-21)
(-1.31099 -0.115838 0)
(-0.952126 -0.107453 0)
(-0.616293 -0.099922 0)
(-0.300765 -0.0929202 -5.17109e-21)
(-0.00247731 -0.0859417 -4.89134e-21)
(0.280768 -0.0788602 0)
(0.550043 -0.0724819 -4.50122e-21)
(0.803358 -0.0670868 -4.37725e-21)
(1.0407 -0.0626079 4.29192e-21)
(1.26323 -0.0585962 0)
(1.47275 -0.0548709 0)
(1.67117 -0.051472 4.21214e-21)
(1.86055 -0.0486442 0)
(2.04381 -0.0468567 0)
(2.22584 -0.0467564 0)
(2.4142 -0.0490115 0)
(2.61872 -0.0537814 -4.2749e-21)
(2.84854 -0.0602502 -4.20194e-21)
(3.10815 -0.0661918 0)
(3.39161 -0.0676581 -3.9104e-21)
(3.68018 -0.061619 0)
(3.9489 -0.0493567 0)
(4.17552 -0.0336585 -3.49634e-21)
(4.341 -0.0139286 0)
(4.42717 0.00974198 -3.41503e-21)
(4.42851 0.0307698 0)
(4.36277 0.0449056 0)
(4.24198 0.0577853 -3.40512e-21)
(4.06734 0.0753728 0)
(3.84062 0.0933261 -3.37644e-21)
(3.5785 0.0990466 0)
(3.31763 0.0845885 0)
(3.09894 0.0595112 0)
(2.93183 0.0417395 3.132e-21)
(2.79989 0.0284853 0)
(2.69614 0.00858283 -2.83199e-21)
(2.62152 0.00455869 0)
(2.53801 0.0319192 0)
(2.42824 0.0321017 0)
(2.35318 -0.0162179 0)
(2.36613 -0.0019589 0)
(2.26103 0.120397 0)
(1.87716 0.175959 0)
(1.29064 0.0772342 2.78093e-21)
(0.983484 -0.0142795 0)
(0.485287 -0.0571809 0)
(-0.070789 0.404211 2.41588e-20)
(-0.101793 0.321444 -2.40072e-20)
(0.150924 -0.12272 0)
(0.459109 -0.423275 1.57184e-20)
(0.768272 -0.507132 0)
(1.04602 -0.412035 7.61113e-21)
(1.26775 -0.19727 -1.53056e-20)
(1.42006 0.0876507 -1.51916e-20)
(1.49433 0.401092 0)
(1.48221 0.688802 -1.49252e-20)
(1.37363 0.913197 -7.27968e-21)
(1.1612 1.04808 0)
(0.841733 1.07052 0)
(0.430208 0.97471 0)
(-0.0490944 0.783736 0)
(-0.556468 0.541113 -7.05801e-21)
(-0.941539 0.323121 0)
(-1.23593 0.289481 1.39679e-20)
(-1.61575 0.438458 0)
(-2.02686 0.650153 0)
(-2.41672 1.02945 -1.40629e-20)
(-2.75038 1.39896 0)
(-3.0427 1.35387 1.42497e-20)
(-3.31114 0.990021 -7.04356e-21)
(-3.46884 0.683544 7.09976e-21)
(-3.53032 0.500155 -7.147e-21)
(-3.55855 0.312086 -7.18393e-21)
(-3.58155 0.175645 0)
(-3.62487 0.148208 0)
(-3.69439 0.149321 7.2396e-21)
(-3.78402 0.146006 -7.30331e-21)
(-3.89201 0.16632 0)
(-4.01383 0.196404 0)
(-4.14431 0.211632 7.2534e-21)
(-4.27807 0.214916 0)
(-4.40852 0.210032 0)
(-4.531 0.193359 -7.20818e-21)
(-4.64093 0.165103 0)
(-4.73373 0.127609 7.26244e-21)
(-4.8069 0.0811137 -1.41003e-20)
(-4.8591 0.0263328 0)
(-4.88974 -0.0340414 0)
(-4.89474 -0.0970885 -2.71967e-20)
(-4.87053 -0.161107 -2.65642e-20)
(-4.8103 -0.227518 -2.58365e-20)
(-4.70507 -0.30159 1.26681e-20)
(-4.54591 -0.389061 -1.19158e-20)
(-4.327 -0.490717 -3.46391e-20)
(-4.04802 -0.598061 2.22091e-20)
(-3.71612 -0.69351 1.04772e-20)
(-3.34698 -0.757909 0)
(-2.96151 -0.78191 -9.51816e-21)
(-2.57842 -0.770947 9.26867e-21)
(-2.20945 -0.738928 0)
(-1.86095 -0.698609 0)
(-1.53563 -0.656279 0)
(-1.23549 -0.611567 -7.50396e-21)
(-0.963314 -0.563013 0)
(-0.722582 -0.505646 1.37279e-20)
(-0.513163 -0.439007 0)
(-0.340945 -0.365418 1.25361e-20)
(-0.214135 -0.290497 0)
(-0.128186 -0.227452 -1.14938e-20)
(-0.0673827 -0.187981 0)
(0.00134761 -0.185042 1.05694e-20)
(0.111173 -0.223839 -5.07158e-21)
(0.271942 -0.28463 0)
(0.471035 -0.342268 -9.33065e-21)
(0.692755 -0.384904 -4.45062e-21)
(0.92685 -0.411168 -4.26245e-21)
(1.16639 -0.433553 0)
(1.41498 -0.452818 -3.99699e-21)
(1.6768 -0.47179 -3.72276e-21)
(1.95171 -0.49689 0)
(2.23996 -0.513408 3.37203e-21)
(2.54665 -0.531462 -6.52142e-21)
(2.86799 -0.565422 0)
(3.20057 -0.590475 -2.86418e-21)
(3.57508 -0.592299 0)
(3.98831 -0.585425 7.83282e-21)
(4.324 -0.499946 0)
(4.63256 -0.303346 -7.15074e-21)
(4.92885 -0.0855315 -2.23089e-21)
(4.99822 0.228016 2.35388e-21)
(4.97993 0.75077 4.53646e-21)
(5.14819 1.2696 -4.51377e-21)
(4.85216 1.38913 0)
(3.72409 0.944247 0)
(2.7618 0.378048 0)
(2.34447 -0.289852 1.09357e-20)
(1.97657 -0.769167 3.0632e-21)
(1.60109 0.0575859 -2.4114e-21)
(1.71167 0.867807 0)
(2.96276 0.0534012 -1.00878e-21)
(2.6536 -0.286398 1.22912e-21)
(0.312857 1.13896 1.23785e-21)
(-2.1908 2.58105 0)
(-4.64502 3.03768 0)
(-6.32245 2.73713 0)
(-7.56086 2.21925 6.85544e-21)
(-8.49632 1.71435 0)
(-9.22659 1.28951 -2.87156e-20)
(-9.79848 0.96352 -4.95933e-20)
(-10.2496 0.722737 3.80006e-20)
(-10.6106 0.54875 0)
(-10.8981 0.421851 2.28098e-20)
(-11.1298 0.324092 0)
(-11.3097 0.241619 4.94818e-20)
(-11.4422 0.164481 -2.58437e-20)
(-11.5242 0.0869575 -2.64091e-20)
(-11.5527 0.0059438 0)
(-11.5239 -0.0787957 -7.92203e-20)
(-11.4257 -0.166608 5.25397e-20)
(-11.2562 -0.256007 2.55035e-20)
(-11.0134 -0.343991 0)
(-10.6984 -0.427504 2.37602e-20)
(-10.3152 -0.503518 6.81641e-20)
(-9.87013 -0.5695 0)
(-9.3716 -0.623714 3.98533e-20)
(-8.82932 -0.665223 3.67123e-20)
(-8.25348 -0.693895 3.35135e-20)
(-7.65429 -0.710247 0)
(-7.0414 -0.715254 0)
(-6.42364 -0.710185 0)
(-5.80878 -0.69646 -1.08645e-20)
(-5.20347 -0.675538 -9.48135e-21)
(-4.61325 -0.64886 0)
(-4.04249 -0.617849 -1.47616e-20)
(-3.49449 -0.583902 -1.29697e-20)
(-2.97157 -0.548293 0)
(-2.47511 -0.512162 -1.0038e-20)
(-2.00566 -0.476521 -1.78549e-20)
(-1.56312 -0.442182 7.94733e-21)
(-1.1468 -0.409826 7.18626e-21)
(-0.755539 -0.380083 0)
(-0.387909 -0.353243 0)
(-0.0419183 -0.329284 0)
(0.284794 -0.307772 5.16949e-21)
(0.594374 -0.287957 -4.92479e-21)
(0.887929 -0.269351 -9.36793e-21)
(1.16618 -0.252296 4.49733e-21)
(1.42899 -0.23688 -4.4024e-21)
(1.67625 -0.223 -4.2883e-21)
(1.90836 -0.210427 0)
(2.1264 -0.199034 0)
(2.3319 -0.188893 4.23182e-21)
(2.52674 -0.180564 0)
(2.71372 -0.175369 0)
(2.89768 -0.175405 -8.60865e-21)
(3.08664 -0.182965 0)
(3.29123 -0.199065 -4.35137e-21)
(3.52247 -0.221458 4.19843e-21)
(3.78524 -0.24344 0)
(4.07192 -0.2554 -3.97826e-21)
(4.3633 -0.249503 0)
(4.63383 -0.223002 0)
(4.85806 -0.17726 3.49371e-21)
(5.02155 -0.117728 -6.88322e-21)
(5.12757 -0.0554729 3.41284e-21)
(5.18318 -0.000884163 0)
(5.18464 0.0457338 0)
(5.13718 0.088702 -3.436e-21)
(5.05203 0.126546 0)
(4.93513 0.154703 -3.41753e-21)
(4.7895 0.168842 0)
(4.62858 0.16444 0)
(4.4695 0.143027 0)
(4.30926 0.117706 -3.12807e-21)
(4.14252 0.102387 0)
(3.94821 0.0957954 2.82881e-21)
(3.70401 0.0857071 0)
(3.45391 0.0703507 0)
(3.3091 0.0584143 -4.71047e-21)
(3.22172 0.0337069 4.3085e-21)
(3.16772 0.0100814 0)
(3.12426 0.0566134 0)
(3.15759 0.182023 0)
(3.07373 0.267151 -8.42931e-21)
(3.16502 0.257669 0)
(3.01489 0.156757 4.66603e-21)
(-0.0529673 0.579602 1.41301e-22)
(0.302101 -0.262071 3.22027e-20)
(0.743125 -1.11311 0)
(1.12442 -1.50283 -3.16199e-20)
(1.42666 -1.52679 0)
(1.66091 -1.32449 0)
(1.83816 -0.992019 -4.46499e-22)
(1.96457 -0.584899 1.51557e-20)
(2.04233 -0.136168 1.55168e-20)
(2.06794 0.336614 1.48925e-20)
(2.04035 0.7966 0)
(1.94961 1.20519 0)
(1.77806 1.52651 -1.48338e-20)
(1.50476 1.72473 -2.92976e-20)
(1.11222 1.76908 2.89531e-20)
(0.573918 1.65369 0)
(-0.0663402 1.39555 2.8419e-20)
(-0.72097 1.13072 -1.3974e-20)
(-1.32308 1.09759 0)
(-1.77028 1.22198 2.82373e-20)
(-2.12609 1.41314 1.40615e-20)
(-2.41513 1.65236 -2.8675e-20)
(-2.59196 1.63228 -1.42554e-20)
(-2.71077 1.25387 0)
(-2.77912 0.826785 2.93885e-20)
(-2.78002 0.554456 2.94158e-20)
(-2.75179 0.403178 0)
(-2.74337 0.340421 2.934e-20)
(-2.77957 0.35514 0)
(-2.8728 0.391196 2.929e-20)
(-3.02711 0.421252 1.45715e-20)
(-3.22475 0.464089 0)
(-3.43848 0.516655 0)
(-3.65923 0.554227 0)
(-3.88571 0.568071 0)
(-4.1073 0.556177 0)
(-4.31341 0.515918 0)
(-4.49863 0.453102 2.93872e-20)
(-4.65883 0.375147 -4.36283e-20)
(-4.7922 0.286418 0)
(-4.89905 0.189993 0)
(-4.97772 0.0871939 0)
(-5.02211 -0.0229015 -5.80303e-22)
(-5.02212 -0.145275 2.65534e-20)
(-4.9664 -0.288383 5.22119e-20)
(-4.84642 -0.458364 -5.05615e-20)
(-4.66118 -0.652675 -2.46467e-20)
(-4.41899 -0.856943 2.31707e-20)
(-4.13349 -1.04729 4.88092e-22)
(-3.81809 -1.19853 2.16556e-20)
(-3.48457 -1.29453 0)
(-3.14243 -1.33309 1.96282e-20)
(-2.79586 -1.32259 3.40163e-22)
(-2.44488 -1.27635 0)
(-2.09327 -1.20744 0)
(-1.75092 -1.12223 -1.59582e-20)
(-1.42823 -1.02152 0)
(-1.13484 -0.91002 0)
(-0.885205 -0.783918 1.36857e-20)
(-0.683006 -0.641756 2.61051e-20)
(-0.524868 -0.491998 -1.25281e-20)
(-0.421618 -0.341217 0)
(-0.356794 -0.231369 1.14873e-20)
(-0.264564 -0.230357 0)
(-0.110329 -0.333672 1.05293e-20)
(0.0857228 -0.475108 1.01349e-20)
(0.294919 -0.597973 -1.95064e-20)
(0.502238 -0.679046 -9.44273e-21)
(0.703605 -0.721569 0)
(0.900253 -0.74031 1.74012e-20)
(1.09827 -0.753709 0)
(1.30312 -0.774346 2.39963e-20)
(1.52854 -0.803911 1.54491e-20)
(1.77737 -0.835107 1.4793e-20)
(2.04113 -0.863445 -1.41318e-20)
(2.3161 -0.89381 1.99824e-20)
(2.60948 -0.940559 0)
(2.93016 -1.00361 0)
(3.30356 -1.04629 -1.14379e-20)
(3.74697 -1.0339 -1.61081e-20)
(4.19831 -0.902137 0)
(4.62814 -0.611754 4.80409e-21)
(5.00776 -0.253211 0)
(5.16204 0.139738 -1.39072e-20)
(5.2361 0.641382 8.864e-22)
(5.4867 1.20599 -7.7827e-22)
(5.57682 1.61318 8.6415e-21)
(5.29137 1.76446 0)
(4.76636 1.67909 -7.99447e-21)
(4.10394 1.0623 1.61325e-22)
(3.42883 0.0219835 0)
(2.74405 -0.215857 0)
(3.20006 -0.291339 0)
(3.37071 -0.314321 2.64424e-21)
(0.874861 1.37271 0)
(-2.16747 3.52048 0)
(-4.30493 4.53571 0)
(-5.7088 4.49692 0)
(-6.59697 3.90708 0)
(-7.32894 3.16973 2.17815e-20)
(-7.94833 2.47059 0)
(-8.46693 1.88021 2.87202e-20)
(-8.90326 1.41711 3.37061e-20)
(-9.25869 1.07186 -3.80318e-20)
(-9.55999 0.819716 0)
(-9.81198 0.635555 -4.48311e-20)
(-10.0296 0.493391 0)
(-10.211 0.372044 -4.95445e-20)
(-10.3547 0.255758 5.1185e-20)
(-10.4532 0.135364 1.58639e-19)
(-10.4997 0.00718404 0)
(-10.4863 -0.12954 1.60832e-19)
(-10.4057 -0.272537 5.42475e-20)
(-10.2522 -0.418003 0)
(-10.0228 -0.561639 1.01717e-19)
(-9.71781 -0.69846 9.76341e-20)
(-9.34096 -0.823456 -1.38328e-19)
(-8.89923 -0.932315 0)
(-8.402 -1.02184 -3.98745e-20)
(-7.86019 -1.09027 -3.67299e-20)
(-7.28542 -1.13727 -1.01531e-19)
(-6.6892 -1.16374 0)
(-6.08242 -1.17145 0)
(-5.47491 -1.1627 0)
(-4.87514 -1.14005 -2.20685e-20)
(-4.2901 -1.10609 0)
(-3.72524 -1.06328 0)
(-3.18447 -1.01393 1.47668e-20)
(-2.67008 -0.960191 1.29741e-20)
(-2.18315 -0.90398 0)
(-1.72379 -0.8469 0)
(-1.29124 -0.790372 1.78604e-20)
(-0.884304 -0.735533 0)
(-0.501521 -0.683268 -1.43411e-20)
(-0.14104 -0.634449 -1.30895e-20)
(0.199203 -0.589696 0)
(0.52227 -0.54932 0)
(0.831315 -0.51293 1.04343e-20)
(1.12887 -0.479443 -6.73372e-23)
(1.41658 -0.447656 -6.43837e-23)
(1.69465 -0.416935 0)
(1.96198 -0.387384 1.75923e-20)
(2.21706 -0.3596 0)
(2.45866 -0.334023 0)
(2.68611 -0.310734 0)
(2.89914 -0.289817 -8.43387e-21)
(3.09798 -0.272126 0)
(3.28428 -0.260003 1.71734e-20)
(3.46291 -0.257456 8.60219e-21)
(3.6438 -0.269097 0)
(3.84256 -0.297316 8.61623e-21)
(4.07719 -0.337889 0)
(4.35943 -0.376571 0)
(4.6831 -0.392814 2.38927e-20)
(5.01687 -0.372359 -1.52247e-20)
(5.31103 -0.318127 0)
(5.5201 -0.245925 -1.40896e-20)
(5.62848 -0.16612 6.87878e-21)
(5.65494 -0.0773367 0)
(5.62684 0.0139218 0)
(5.55605 0.0881427 0)
(5.44864 0.139397 2.0626e-20)
(5.32077 0.183566 0)
(5.18877 0.229695 6.78786e-21)
(5.05337 0.260495 0)
(4.90585 0.252742 0)
(4.74934 0.214701 0)
(4.59067 0.185081 0)
(4.41752 0.187021 0)
(4.19129 0.20592 0)
(3.91371 0.216587 1.07826e-20)
(3.64139 0.194955 0)
(3.46475 0.140562 4.70931e-21)
(3.37967 0.071244 -1.29561e-20)
(3.33055 0.0348959 0)
(3.28049 0.0772504 0)
(3.34933 0.198122 6.15473e-21)
(3.46422 0.263143 5.65129e-21)
(3.64207 0.204961 -5.24739e-21)
(3.69303 0.0856489 -4.66381e-21)
(0.166266 0.34256 -4.92744e-20)
(0.702378 -1.36772 -4.89172e-20)
(1.12132 -2.15365 -3.26861e-20)
(1.40334 -2.23742 -1.67274e-20)
(1.57463 -1.98531 0)
(1.69541 -1.59589 3.25592e-20)
(1.79956 -1.15693 -1.67509e-20)
(1.9007 -0.698747 0)
(2.00032 -0.228994 -1.55256e-20)
(2.07942 0.243832 0)
(2.12007 0.712527 3.15793e-20)
(2.11887 1.16679 0)
(2.06926 1.59601 1.48146e-20)
(1.95508 1.98354 2.92389e-20)
(1.75659 2.29471 -2.88702e-20)
(1.44216 2.47799 0)
(0.988603 2.47804 -2.83229e-20)
(0.408114 2.29263 0)
(-0.265856 2.07221 0)
(-0.852413 1.97284 -2.82777e-20)
(-1.24257 1.96327 0)
(-1.54977 1.95551 -5.10088e-22)
(-1.79447 1.79243 0)
(-1.96707 1.40754 0)
(-2.09878 0.956712 2.81591e-22)
(-2.17855 0.599979 -2.9465e-20)
(-2.21059 0.401425 -2.95932e-20)
(-2.24139 0.371922 -2.93798e-20)
(-2.33726 0.485996 0)
(-2.53109 0.676737 -5.87915e-20)
(-2.79835 0.86879 0)
(-3.1061 1.00006 -2.96111e-20)
(-3.43143 1.05192 0)
(-3.75182 1.05664 0)
(-4.05053 1.02772 2.99395e-20)
(-4.32281 0.961235 0)
(-4.56958 0.868051 -3.00798e-20)
(-4.79035 0.756931 7.18277e-22)
(-4.98418 0.633266 5.92118e-20)
(-5.14901 0.501998 -5.96542e-20)
(-5.27916 0.361876 0)
(-5.36527 0.20611 0)
(-5.3972 0.0254149 -2.95566e-20)
(-5.36789 -0.187112 0)
(-5.27621 -0.430641 -2.63638e-20)
(-5.12827 -0.694993 2.55294e-20)
(-4.93654 -0.962436 2.46192e-20)
(-4.71498 -1.21202 0)
(-4.47285 -1.42485 -2.26473e-20)
(-4.21261 -1.58933 -2.16229e-20)
(-3.93224 -1.70233 4.24389e-20)
(-3.62701 -1.76414 -1.95939e-20)
(-3.29117 -1.77382 -1.86197e-20)
(-2.92376 -1.73178 0)
(-2.53341 -1.64368 0)
(-2.13681 -1.51709 1.59334e-20)
(-1.75205 -1.35684 0)
(-1.39205 -1.17134 0)
(-1.07301 -0.968925 -2.73764e-20)
(-0.812129 -0.756659 -2.60855e-20)
(-0.601761 -0.568239 0)
(-0.407418 -0.457645 0)
(-0.200354 -0.45299 0)
(0.0236274 -0.539327 0)
(0.240519 -0.668398 -2.10815e-20)
(0.423748 -0.786121 2.02516e-20)
(0.568433 -0.861857 1.94913e-20)
(0.686686 -0.894891 3.76332e-20)
(0.79568 -0.902175 0)
(0.909483 -0.905932 2.57212e-22)
(1.03799 -0.924317 0)
(1.18931 -0.968465 -1.60984e-20)
(1.37323 -1.03472 4.65113e-22)
(1.59121 -1.09228 -1.47916e-20)
(1.83388 -1.13378 1.41308e-20)
(2.07649 -1.17705 5.86409e-22)
(2.3275 -1.24966 0)
(2.62473 -1.37033 1.27281e-20)
(2.98917 -1.49076 1.14355e-20)
(3.44498 -1.53396 2.22762e-20)
(3.98255 -1.41397 0)
(4.51037 -1.06838 -1.06169e-20)
(4.95695 -0.561363 0)
(5.26372 -0.0108477 1.97465e-20)
(5.40645 0.518477 -9.17004e-21)
(5.47121 1.01242 8.95931e-21)
(5.57737 1.46255 -8.64047e-21)
(5.74389 1.92627 -1.818e-20)
(5.56517 2.2569 7.97888e-21)