/*--------------------------------*- C++ -*----------------------------------*\
  =========                 |
  \\      /  F ield         | OpenFOAM: The Open Source CFD Toolbox
   \\    /   O peration     | Website:  https://openfoam.org
    \\  /    A nd           | Version:  6
     \\/     M anipulation  |
\*---------------------------------------------------------------------------*/
FoamFile
{
    version     2.0;
    format      ascii;
    class       volVectorField;
    location    "0.5";
    object      U_0;
}
// * * * * * * * * * * * * * * * * * * * * * * * * * * * * * * * * * * * * * //

dimensions      [0 1 -1 0 0 0 0];

internalField   nonuniform List<vector> 
12225
(
(9.87727 -0.0220727 0)
(9.70625 0.033171 0)
(9.3852 0.0999078 0)
(8.99201 0.0842975 0)
(8.62157 0.0534247 0)
(8.32949 0.0386488 0)
(8.11087 0.0332649 0)
(7.9326 0.0352301 0)
(7.74971 0.0486489 0)
(7.52392 0.0683255 0)
(7.24932 0.0829181 0)
(6.95267 0.0835524 0)
(6.66862 0.0737921 0)
(6.41967 0.0576452 0)
(6.19726 0.0479308 0)
(6.0266 0.0316055 0)
(5.83291 0.0421746 0)
(5.70172 0.0208589 0)
(10.0977 0.117305 0)
(10.0747 0.0806016 0)
(10.0598 0.0910425 0)
(10.0228 0.114577 0)
(9.98663 0.10855 0)
(9.9709 0.082953 0)
(9.95939 0.0612998 0)
(9.93957 0.0539747 0)
(9.92079 0.0605222 0)
(9.90997 0.0751206 0)
(9.90371 0.0898311 0)
(9.89492 0.0985202 0)
(9.88097 0.0981708 0)
(9.86247 0.0947485 0)
(9.83981 0.0878674 0)
(9.8147 0.0866042 0)
(9.78611 0.0928499 0)
(9.73822 0.0944303 0)
(9.92998 0.0377624 0)
(10.0046 0.0408737 0)
(10.1335 0.0316324 0)
(10.19 0.0520555 0)
(10.1681 0.0575204 0)
(10.1209 0.0528841 0)
(10.0789 0.0478869 0)
(10.0568 0.0455713 0)
(10.0664 0.0491067 0)
(10.108 0.0592334 0)
(10.1681 0.0722842 0)
(10.2251 0.0820127 0)
(10.2608 0.0847336 0)
(10.2681 0.0819844 0)
(10.2562 0.0767615 0)
(10.2381 0.0748725 0)
(10.2285 0.0788947 0)
(10.236 0.0915019 0)
(10.0517 0.148039 0)
(10.0153 0.100379 0)
(10.0636 0.11187 0)
(10.1292 0.124749 0)
(10.1615 0.116468 0)
(10.1799 0.104674 0)
(10.2054 0.0926517 0)
(10.2305 0.0801917 0)
(10.2357 0.0719533 0)
(10.2117 0.0723761 0)
(10.1672 0.0813293 0)
(10.1183 0.0937606 0)
(10.0775 0.103634 0)
(10.0514 0.107232 0)
(10.043 0.103765 0)
(10.0542 0.096556 0)
(10.0825 0.0900356 0)
(10.1301 0.0910085 0)
(9.98993 0.0899777 0)
(10.0399 0.0386099 0)
(10.0712 0.0255291 0)
(10.0624 0.0657004 0)
(10.0265 0.0626739 0)
(10.0358 0.0258888 0)
(10.1016 -0.00319 0)
(10.1804 -0.000865511 0)
(10.2278 0.0274541 0)
(10.2281 0.0610869 0)
(10.1976 0.0838487 0)
(10.1635 0.0910847 0)
(10.1443 0.0859853 0)
(10.1445 0.0743893 0)
(10.1588 0.0614932 0)
(10.1801 0.052045 0)
(10.2033 0.0485454 0)
(10.2253 0.0510905 0)
(10.1029 0.0667776 0)
(10.2533 -0.0144776 0)
(10.2246 0.0243895 0)
(10.1577 0.0996207 0)
(10.0762 0.127571 0)
(9.98824 0.11239 0)
(9.92238 0.0824889 0)
(9.90629 0.0636944 0)
(9.93907 0.0665955 0)
(9.9966 0.0856284 0)
(10.0557 0.108374 0)
(10.1054 0.123685 0)
(10.1439 0.126037 0)
(10.1738 0.116087 0)
(10.1981 0.0985394 0)
(10.2205 0.0798297 0)
(10.241 0.0647286 0)
(10.2609 0.0551172 0)
(9.84494 -0.0294991 0)
(9.93225 0.0566874 0)
(9.91063 0.102786 0)
(9.90256 0.112925 0)
(9.966 0.0933263 0)
(10.0559 0.0515917 0)
(10.1056 0.0114127 0)
(10.0959 -0.00363166 0)
(10.0545 0.00809613 0)
(10.0226 0.0311603 0)
(10.0262 0.0501142 0)
(10.0683 0.0580743 0)
(10.133 0.0559961 0)
(10.1995 0.0489563 0)
(10.2474 0.0422058 0)
(10.2703 0.0389916 0)
(10.2663 0.0398477 0)
(10.2487 0.0420781 0)
(10.1761 -0.0737379 0)
(10.0627 0.0332425 0)
(9.97151 0.0914724 0)
(9.97312 0.120427 0)
(10.0294 0.104103 0)
(10.0576 0.0648383 0)
(10.0366 0.0422019 0)
(10.0045 0.0475289 0)
(9.99684 0.0645373 0)
(10.0194 0.0747085 0)
(10.0605 0.0723668 0)
(10.104 0.0619668 0)
(10.1369 0.0505767 0)
(10.1535 0.0433671 0)
(10.1544 0.0422407 0)
(10.1467 0.0458072 0)
(10.1354 0.0510799 0)
(10.1288 0.0531308 0)
(9.73573 -0.0474432 0)
(9.77532 0.028784 0)
(9.85325 0.0468642 0)
(9.89005 0.0372987 0)
(9.91601 0.0434915 0)
(9.93649 0.0589306 0)
(9.96331 0.0608024 0)
(10.0069 0.0460575 0)
(10.0581 0.0266029 0)
(10.0982 0.0144714 0)
(10.1188 0.0151197 0)
(10.1233 0.0269871 0)
(10.1186 0.0439732 0)
(10.1115 0.0607679 0)
(10.104 0.073185 0)
(10.0993 0.0803133 0)
(10.0961 0.0809721 0)
(10.097 0.0762688 0)
(10.1263 0.0711159 0)
(10.142 0.0393785 0)
(10.0513 0.0776236 0)
(10.0065 0.115818 0)
(10.0079 0.105554 0)
(10.0323 0.0568733 0)
(10.0604 0.0116712 0)
(10.0761 -0.000811679 0)
(10.0649 0.0163755 0)
(10.0264 0.0412792 0)
(9.97772 0.0554263 0)
(9.9408 0.0545011 0)
(9.92608 0.0437516 0)
(9.93222 0.0316709 0)
(9.95189 0.0240929 0)
(9.97524 0.0215712 0)
(9.9985 0.0234314 0)
(10.0138 0.0242245 0)
(10.1902 0.0261575 0)
(10.0697 0.135477 0)
(9.97625 0.136864 0)
(9.98454 0.0785156 0)
(10.0525 0.0272341 0)
(10.1185 0.00165749 0)
(10.1415 0.00256339 0)
(10.123 0.0232227 0)
(10.0842 0.0501001 0)
(10.0452 0.0693648 0)
(10.0198 0.0748757 0)
(10.0125 0.0698709 0)
(10.0225 0.0622845 0)
(10.0417 0.0579625 0)
(10.0673 0.0595345 0)
(10.092 0.0651339 0)
(10.1167 0.0714347 0)
(10.1338 0.0759754 0)
(9.82989 -0.0211397 0)
(9.86962 0.0647414 0)
(9.97744 0.0561818 0)
(10.0855 0.0441302 0)
(10.1557 0.0429048 0)
(10.1682 0.0350659 0)
(10.1336 0.0291631 0)
(10.0837 0.0366947 0)
(10.0439 0.052858 0)
(10.0255 0.0640224 0)
(10.0309 0.0616832 0)
(10.0547 0.0461918 0)
(10.0868 0.0247842 0)
(10.1173 0.0051814 0)
(10.1388 -0.00758722 0)
(10.151 -0.0125534 0)
(10.1542 -0.0107755 0)
(10.154 -0.00697573 0)
(10.0516 0.162101 0)
(10.1729 0.142557 0)
(10.1491 0.071585 0)
(10.1095 0.0157428 0)
(10.1273 0.00311639 0)
(10.1602 0.0258211 0)
(10.1741 0.0663521 0)
(10.1747 0.101126 0)
(10.1778 0.110779 0)
(10.1888 0.0918704 0)
(10.2015 0.0565193 0)
(10.207 0.0224717 0)
(10.1992 0.00334857 0)
(10.1803 0.00397731 0)
(10.1569 0.0202876 0)
(10.1364 0.0439398 0)
(10.1224 0.0663574 0)
(10.1165 0.0812902 0)
(9.97238 0.0505299 0)
(10.0261 0.0724862 0)
(9.95622 0.0835239 0)
(9.88727 0.0583469 0)
(9.87292 0.00264644 0)
(9.91431 -0.0461589 0)
(10.0004 -0.0627691 0)
(10.108 -0.04283 0)
(10.205 -0.001717 0)
(10.2642 0.0408406 0)
(10.2758 0.0722811 0)
(10.2462 0.0874857 0)
(10.1932 0.0866907 0)
(10.1358 0.0727421 0)
(10.0915 0.0509852 0)
(10.0661 0.0271274 0)
(10.0632 0.0054337 0)
(10.0744 -0.00912501 0)
(10.0595 0.0666934 0)
(10.3074 0.0769126 0)
(10.3405 0.128046 0)
(10.2747 0.0927755 0)
(10.1799 0.0409515 0)
(10.0695 0.0239192 0)
(9.96364 0.0260679 0)
(9.89462 0.0253135 0)
(9.87608 0.0208194 0)
(9.90087 0.0214951 0)
(9.95276 0.031512 0)
(10.0135 0.0460044 0)
(10.0691 0.0579862 0)
(10.1116 0.0626747 0)
(10.1405 0.0604212 0)
(10.1596 0.0542719 0)
(10.1721 0.0472519 0)
(10.1838 0.0433703 0)
(10.0256 0.00108759 0)
(9.92344 -0.0250869 0)
(9.89307 0.0812375 0)
(9.93752 0.121884 0)
(10.0072 0.092109 0)
(10.0441 0.0522903 0)
(10.0387 0.0314536 0)
(10.006 0.023573 0)
(9.96693 0.0150035 0)
(9.94003 0.00227936 0)
(9.93448 -0.00833661 0)
(9.94645 -0.0110993 0)
(9.96445 -0.00591679 0)
(9.98005 0.00218946 0)
(9.98816 0.00531041 0)
(9.99393 0.00194172 0)
(9.99697 -0.0102142 0)
(10.0076 -0.0223301 0)
(10.0893 0.253765 0)
(9.99655 0.167651 0)
(10.0262 0.13129 0)
(10.0656 0.0686199 0)
(10.0508 0.0258713 0)
(9.98954 0.0375171 0)
(9.92793 0.0655615 0)
(9.89889 0.0707097 0)
(9.90077 0.0496613 0)
(9.91615 0.0220494 0)
(9.93054 0.00695287 0)
(9.93818 0.0104272 0)
(9.93904 0.0247432 0)
(9.93798 0.038066 0)
(9.93646 0.0396234 0)
(9.93625 0.0276195 0)
(9.93395 0.0049722 0)
(9.93001 -0.0210848 0)
(9.82734 0.166936 0)
(9.86334 0.00271889 0)
(9.9016 -0.0448777 0)
(9.92351 0.0363969 0)
(9.95062 0.129625 0)
(9.96839 0.174198 0)
(9.97687 0.159273 0)
(9.99023 0.100925 0)
(10.0084 0.0314542 0)
(10.0267 -0.0197412 0)
(10.0451 -0.0416594 0)
(10.0636 -0.0393358 0)
(10.078 -0.0245842 0)
(10.0832 -0.00627821 0)
(10.0762 0.0102386 0)
(10.0567 0.0244407 0)
(10.0289 0.0362426 0)
(9.99614 0.0450079 0)
(9.97646 0.0104155 0)
(9.89203 0.0460527 0)
(9.84802 0.0279318 0)
(9.86553 0.000750806 0)
(9.9467 -0.0107785 0)
(10.0602 -0.0108263 0)
(10.1391 -0.00701203 0)
(10.1536 -0.0100578 0)
(10.1189 -0.0231229 0)
(10.0661 -0.0380461 0)
(10.0208 -0.0418215 0)
(9.99639 -0.0247639 0)
(9.99468 0.0128994 0)
(10.009 0.061291 0)
(10.0312 0.103183 0)
(10.0532 0.124761 0)
(10.0733 0.118846 0)
(10.0864 0.0857569 0)
(10.085 -0.11134 0)
(10.1031 0.0891245 0)
(10.1443 0.0807523 0)
(10.1322 -0.0557261 0)
(10.104 -0.138855 0)
(10.1059 -0.104389 0)
(10.1347 0.00619118 0)
(10.1708 0.11364 0)
(10.2022 0.158512 0)
(10.2181 0.13036 0)
(10.2127 0.0582777 0)
(10.1928 -0.017961 0)
(10.1729 -0.0702015 0)
(10.1645 -0.0901326 0)
(10.1712 -0.0814018 0)
(10.1882 -0.0553783 0)
(10.2094 -0.0205722 0)
(10.2256 0.0147787 0)
(9.81412 -0.0371128 0)
(9.96888 -0.0944638 0)
(10.0632 -0.0543625 0)
(10.0857 -0.0565939 0)
(10.0578 -0.0866459 0)
(10.0326 -0.102373 0)
(10.047 -0.0875008 0)
(10.0936 -0.0464674 0)
(10.1463 0.0037412 0)
(10.1835 0.0466635 0)
(10.1946 0.0724332 0)
(10.181 0.0775395 0)
(10.1538 0.0646353 0)
(10.1253 0.0424765 0)
(10.103 0.0207951 0)
(10.0897 0.00653089 0)
(10.0846 0.00181377 0)
(10.0871 0.00544936 0)
(10.1981 -0.0735446 0)
(10.065 -0.0787879 0)
(10.0154 0.0044978 0)
(9.97936 0.0296757 0)
(9.92053 -0.00121241 0)
(9.84838 -0.0435819 0)
(9.7926 -0.0635997 0)
(9.76794 -0.0560193 0)
(9.77754 -0.032939 0)
(9.81847 -0.00867672 0)
(9.88049 0.0068992 0)
(9.95098 0.0104402 0)
(10.0195 0.00466252 0)
(10.0778 -0.0042325 0)
(10.1209 -0.00964226 0)
(10.1473 -0.00877756 0)
(10.1606 -0.00118533 0)
(10.165 0.00933763 0)
(10.0666 -0.0371354 0)
(10.0519 0.00287914 0)
(10.0465 0.0224715 0)
(10.0831 -0.00506488 0)
(10.1192 -0.0295656 0)
(10.1321 -0.0357749 0)
(10.1232 -0.0258256 0)
(10.0998 -0.0102087 0)
(10.0819 -0.00359316 0)
(10.0873 -0.0142123 0)
(10.1141 -0.0386884 0)
(10.1478 -0.0658443 0)
(10.1761 -0.0839184 0)
(10.1942 -0.0861171 0)
(10.2039 -0.0727966 0)
(10.2093 -0.0500198 0)
(10.2149 -0.024945 0)
(10.224 -0.00520549 0)
(9.93 -0.0649531 0)
(10.0168 -0.0957445 0)
(10.1224 -0.0589774 0)
(10.1591 -0.0241269 0)
(10.1275 0.00692927 0)
(10.0669 0.0231152 0)
(10.0235 0.0116275 0)
(10.007 -0.0198246 0)
(10.0054 -0.0536239 0)
(10.0042 -0.0767321 0)
(9.99215 -0.0849155 0)
(9.96868 -0.0809186 0)
(9.94395 -0.0706651 0)
(9.92949 -0.0599344 0)
(9.93125 -0.0511407 0)
(9.94928 -0.0442244 0)
(9.97973 -0.0384181 0)
(10.019 -0.0315036 0)
(10.1636 0.0205707 0)
(10.1231 -0.0468368 0)
(10.1117 -0.0512544 0)
(10.0513 -0.0284539 0)
(9.98027 -0.0176023 0)
(9.9324 -0.0151436 0)
(9.92742 -0.0132679 0)
(9.95861 -0.0094736 0)
(10.0117 -0.00443478 0)
(10.0746 -0.00207858 0)
(10.1344 -0.00627985 0)
(10.1802 -0.0175713 0)
(10.2067 -0.0331862 0)
(10.2146 -0.0491767 0)
(10.2067 -0.0626459 0)
(10.1895 -0.0719194 0)
(10.1681 -0.0774994 0)
(10.1495 -0.0798676 0)
(9.99033 0.0403098 0)
(9.98323 -0.0266572 0)
(9.96877 0.00543193 0)
(9.97228 0.0791762 0)
(9.99469 0.110071 0)
(10.0024 0.0837392 0)
(10.0015 0.0145541 0)
(10.0116 -0.0634828 0)
(10.0403 -0.118792 0)
(10.0819 -0.142154 0)
(10.1218 -0.140985 0)
(10.146 -0.125523 0)
(10.149 -0.103395 0)
(10.1341 -0.0795318 0)
(10.1089 -0.057707 0)
(10.0813 -0.0404707 0)
(10.0571 -0.0291964 0)
(10.0396 -0.0248707 0)
(10.0361 0.0471815 0)
(9.92649 -0.0777143 0)
(9.97656 -0.080677 0)
(10.0661 -0.0375775 0)
(10.1946 -0.0131663 0)
(10.298 -0.00437512 0)
(10.3268 -0.0158971 0)
(10.2822 -0.0460029 0)
(10.1956 -0.0763635 0)
(10.1042 -0.0894711 0)
(10.0355 -0.0801824 0)
(10.0018 -0.0552575 0)
(10.0029 -0.0275098 0)
(10.0306 -0.00826082 0)
(10.0739 -0.00273697 0)
(10.1211 -0.00927469 0)
(10.1651 -0.0232424 0)
(10.1982 -0.0389978 0)
(10.1054 -0.0119302 0)
(10.1545 0.00614942 0)
(10.1068 -0.0528388 0)
(10.129 -0.0462775 0)
(10.1889 -0.0145836 0)
(10.2443 0.00378053 0)
(10.2853 0.00605516 0)
(10.3121 -0.00177277 0)
(10.3171 -0.0169735 0)
(10.2967 -0.0406588 0)
(10.2606 -0.070835 0)
(10.2256 -0.0998941 0)
(10.2052 -0.119762 0)
(10.2038 -0.126401 0)
(10.2197 -0.120427 0)
(10.2458 -0.106181 0)
(10.2761 -0.0875868 0)
(10.3032 -0.0704936 0)
(10.015 -0.0904335 0)
(10.1172 -0.0677202 0)
(10.067 -0.0788825 0)
(9.95842 -0.078635 0)
(9.97486 -0.0535516 0)
(10.0767 -0.0328906 0)
(10.1785 -0.0300847 0)
(10.2468 -0.0388115 0)
(10.2825 -0.0453955 0)
(10.2939 -0.0425301 0)
(10.2869 -0.0326082 0)
(10.2655 -0.0229453 0)
(10.2334 -0.0200598 0)
(10.1965 -0.0268908 0)
(10.1604 -0.0410093 0)
(10.1302 -0.0573662 0)
(10.1066 -0.0707447 0)
(10.0912 -0.0769887 0)
(9.83563 -0.0382143 0)
(9.692 0.0344122 0)
(9.64072 0.0397644 0)
(9.49735 0.00190191 0)
(9.33266 -0.0445195 0)
(9.1666 -0.0724439 0)
(9.00053 -0.0754884 0)
(8.85023 -0.0661986 0)
(8.71802 -0.0594037 0)
(8.59306 -0.0608252 0)
(8.46923 -0.0672033 0)
(8.34802 -0.0728247 0)
(8.22973 -0.0747366 0)
(8.11128 -0.0733005 0)
(7.98725 -0.0697144 0)
(7.85869 -0.0648286 0)
(7.72643 -0.0586722 0)
(7.60223 -0.0515161 0)
(-0.0773389 0.0461378 -7.66919e-20)
(-0.197604 -0.0441045 7.612e-20)
(-0.184432 -0.0953276 0)
(-0.0607088 -0.165371 0)
(0.121669 -0.188177 0)
(0.316551 -0.153158 -7.37561e-20)
(0.478181 -0.077885 0)
(0.564831 0.00839583 0)
(0.551948 0.085238 0)
(0.432998 0.139117 0)
(0.219647 0.161836 7.09802e-20)
(-0.0660249 0.145667 0)
(-0.373515 0.0821519 0)
(-0.619956 0.00382405 0)
(-0.79168 -0.0208933 0)
(-0.899517 0.0175078 6.80975e-20)
(-0.936474 0.0479803 0)
(-0.927904 0.0217211 0)
(-0.927988 -0.0103387 0)
(-0.982119 0.0225308 0)
(-1.14065 0.177867 0)
(-1.47232 0.485499 0)
(-2.03257 0.749703 0)
(-2.64904 0.643703 6.40359e-20)
(-3.07501 0.369458 -6.35612e-20)
(-3.37216 0.267313 6.30926e-20)
(-3.62338 0.18412 6.26277e-20)
(-3.78091 0.0835465 0)
(-3.89221 0.0728789 0)
(-4.00559 0.0704795 -6.12376e-20)
(-4.09723 0.0552456 -6.07735e-20)
(-4.18076 0.0714029 0)
(-4.27903 0.0832405 0)
(-4.38251 0.0773729 -5.93712e-20)
(-4.48604 0.0770342 0)
(-4.59081 0.0756124 0)
(-4.68988 0.0644878 5.79349e-20)
(-4.77665 0.0508144 0)
(-4.84826 0.0362215 5.69355e-20)
(-4.90078 0.0180522 1.12834e-19)
(-4.9294 -0.00253487 0)
(-4.92991 -0.0237348 0)
(-4.90241 -0.0453622 0)
(-4.84621 -0.0671285 0)
(-4.76112 -0.0884349 0)
(-4.64477 -0.109799 1.05879e-19)
(-4.49229 -0.132869 1.04606e-19)
(-4.29716 -0.159235 1.03317e-19)
(-4.05351 -0.18848 0)
(-3.76007 -0.216396 -1.0073e-19)
(-3.42399 -0.235962 0)
(-3.06062 -0.242125 9.82024e-20)
(-2.68887 -0.235929 9.69769e-20)
(-2.32553 -0.223012 0)
(-1.98163 -0.208881 0)
(-1.66228 -0.196114 0)
(-1.36883 -0.184304 9.23287e-20)
(-1.10171 -0.171335 0)
(-0.862634 -0.154592 0)
(-0.655098 -0.134245 0)
(-0.481514 -0.115221 0)
(-0.339136 -0.103807 0)
(-0.219744 -0.101807 0)
(-0.111874 -0.106473 0)
(-0.000286808 -0.11435 0)
(0.130172 -0.123756 -8.28426e-20)
(0.291172 -0.132981 0)
(0.481537 -0.142061 0)
(0.699154 -0.149213 7.98052e-20)
(0.932701 -0.152331 7.88158e-20)
(1.17745 -0.159247 0)
(1.43885 -0.159332 -7.68643e-20)
(1.7021 -0.163292 7.58988e-20)
(1.98682 -0.179462 0)
(2.29002 -0.168971 -7.39853e-20)
(2.5844 -0.17232 0)
(2.9159 -0.210785 0)
(3.27201 -0.179295 7.11677e-20)
(3.59618 -0.163772 0)
(3.96551 -0.236727 -6.93729e-20)
(4.31261 -0.120911 0)
(4.49923 -0.0333008 6.76879e-20)
(4.5971 -0.17148 6.68748e-20)
(4.51924 0.18295 6.60053e-20)
(3.83706 0.705496 1.3035e-19)
(2.76037 0.333811 -1.29097e-19)
(1.9603 -0.207461 0)
(1.3506 -0.172779 0)
(0.866608 -0.0630074 0)
(0.753178 -0.330698 -1.23996e-19)
(1.21306 -0.546802 -1.22065e-19)
(1.7621 0.0117601 1.20068e-19)
(1.18557 0.709958 0)
(1.02209 0.280691 -1.16617e-19)
(1.46425 -0.423628 -1.14534e-19)
(2.33667 -0.605159 -1.13223e-19)
(2.00483 0.215308 0)
(-0.706023 1.13384 0)
(-3.4028 1.16039 0)
(-5.4901 0.917105 -1.13606e-19)
(-7.13001 0.689581 0)
(-8.38584 0.508077 0)
(-9.33365 0.375507 1.1848e-19)
(-10.0521 0.280875 0)
(-10.6005 0.214688 0)
(-11.0259 0.167063 1.20736e-19)
(-11.3593 0.130885 0)
(-11.6181 0.100545 0)
(-11.8107 0.0728353 -1.20427e-19)
(-11.9381 0.0454699 -1.1984e-19)
(-11.9986 0.0172339 0)
(-11.9866 -0.0114579 1.17914e-19)
(-11.9054 -0.0407157 0)
(-11.7501 -0.0707673 -1.14957e-19)
(-11.5202 -0.100401 0)
(-11.2168 -0.128654 -1.11039e-19)
(-10.8437 -0.154444 -1.08781e-19)
(-10.4071 -0.176824 0)
(-9.91534 -0.195209 0)
(-9.37773 -0.209236 0)
(-8.80453 -0.218866 0)
(-8.20596 -0.224286 0)
(-7.59191 -0.225838 0)
(-6.97151 -0.223969 0)
(-6.35301 -0.219177 -8.87987e-20)
(-5.74356 -0.211987 8.65687e-20)
(-5.14921 -0.202913 0)
(-4.57486 -0.192468 0)
(-4.02428 -0.181143 0)
(-3.50016 -0.169388 0)
(-3.00414 -0.157597 1.54449e-19)
(-2.53695 -0.146108 0)
(-2.09854 -0.135179 -1.48486e-19)
(-1.68819 -0.124999 1.45761e-19)
(-1.30463 -0.115709 0)
(-0.946198 -0.107345 0)
(-0.610738 -0.0998353 0)
(-0.295521 -0.0928527 -1.36128e-19)
(0.00250853 -0.0858867 -1.33926e-19)
(0.28553 -0.0788098 0)
(0.554601 -0.0724315 -1.29635e-19)
(0.80772 -0.067036 -1.27576e-19)
(1.04488 -0.06256 1.25571e-19)
(1.26724 -0.0585533 0)
(1.47662 -0.054835 0)
(1.67494 -0.0514498 1.19819e-19)
(1.86429 -0.0486512 0)
(2.04766 -0.0469185 0)
(2.23007 -0.0469035 0)
(2.41919 -0.0492655 0)
(2.62486 -0.0541326 -1.10674e-19)
(2.85615 -0.0606375 -1.08787e-19)
(3.11723 -0.0664973 0)
(3.40171 -0.0677494 -1.049e-19)
(3.69049 -0.0614498 0)
(3.95852 -0.0490039 0)
(4.18374 -0.0332009 -9.92e-20)
(4.34732 -0.0133778 0)
(4.43133 0.0102856 -9.56794e-20)
(4.43091 0.031126 0)
(4.36402 0.0450822 0)
(4.24239 0.0579583 -9.06129e-20)
(4.06707 0.0756003 0)
(3.83995 0.0934438 -8.7279e-20)
(3.57802 0.0988601 0)
(3.31808 0.0841371 0)
(3.10074 0.0590717 0)
(2.93475 0.0414784 8.0539e-20)
(2.80345 0.0282745 0)
(2.70008 0.00842365 -7.70278e-20)
(2.62565 0.00470608 0)
(2.54209 0.0321355 0)
(2.43261 0.0318139 0)
(2.35856 -0.0165514 0)
(2.37188 -0.00132284 0)
(2.26499 0.121346 0)
(1.87909 0.175767 0)
(1.29294 0.0763823 1.26224e-19)
(0.987308 -0.0147038 0)
(0.49049 -0.0570995 0)
(-0.0705993 0.402368 2.29791e-19)
(-0.100394 0.318491 -2.28472e-19)
(0.152663 -0.124425 0)
(0.461349 -0.423589 1.49751e-19)
(0.77105 -0.50646 0)
(1.04922 -0.410865 7.34982e-20)
(1.2712 -0.196092 -1.46109e-19)
(1.42361 0.0884359 -1.45039e-19)
(1.49786 0.401112 0)
(1.48576 0.687938 -1.42777e-19)
(1.3774 0.911773 -7.06989e-20)
(1.16561 1.04679 0)
(0.847265 1.07034 0)
(0.437012 0.976582 0)
(-0.0411614 0.78813 0)
(-0.548724 0.547448 -6.81926e-20)
(-0.936161 0.32848 0)
(-1.23192 0.29105 1.34103e-19)
(-1.61218 0.43701 0)
(-2.02377 0.64324 0)
(-2.41441 1.01673 -1.30862e-19)
(-2.7491 1.39289 0)
(-3.04083 1.36059 1.28892e-19)
(-3.31078 0.999496 -6.38678e-20)
(-3.47182 0.687871 6.34566e-20)
(-3.53438 0.502942 -6.30384e-20)
(-3.56226 0.315094 -6.26156e-20)
(-3.58421 0.175494 0)
(-3.62593 0.145733 0)
(-3.69409 0.147179 6.12713e-20)
(-3.78261 0.143575 -6.088e-20)
(-3.88954 0.162961 0)
(-4.01031 0.193112 0)
(-4.13974 0.208776 5.93926e-20)
(-4.27256 0.212115 0)
(-4.40218 0.20721 0)
(-4.52382 0.190558 -5.79472e-20)
(-4.6329 0.162229 0)
(-4.72479 0.124647 5.70997e-20)
(-4.79689 0.0781443 -1.12855e-19)
(-4.84784 0.0233698 0)
(-4.8771 -0.0370534 0)
(-4.88069 -0.100176 -2.19402e-19)
(-4.85532 -0.164126 -2.17011e-19)
(-4.79442 -0.230062 -2.14547e-19)
(-4.68924 -0.30311 1.06173e-19)
(-4.53079 -0.389191 -1.04563e-19)
(-4.31296 -0.489592 -3.101e-19)
(-4.03493 -0.596395 2.0422e-19)
(-3.70339 -0.692264 1.00675e-19)
(-3.33384 -0.757715 0)
(-2.9474 -0.782757 -9.81513e-20)
(-2.56318 -0.77236 9.71418e-20)
(-2.19322 -0.740365 0)
(-1.84401 -0.699725 0)
(-1.51828 -0.656984 0)
(-1.21796 -0.611888 -9.23084e-20)
(-0.945796 -0.562999 0)
(-0.705235 -0.505355 1.80268e-19)
(-0.496113 -0.438482 0)
(-0.324314 -0.364712 1.7598e-19)
(-0.198028 -0.289728 0)
(-0.112677 -0.226753 -1.71812e-19)
(-0.052502 -0.187422 0)
(0.0156557 -0.184634 1.67715e-19)
(0.125045 -0.223581 -8.28333e-20)
(0.285602 -0.284556 0)
(0.484714 -0.34244 -1.61597e-19)
(0.706674 -0.385373 -7.97741e-20)
(0.941222 -0.411992 -7.87845e-20)
(1.18142 -0.434762 0)
(1.43094 -0.454331 -7.69338e-20)
(1.69383 -0.4736 -7.58675e-20)
(1.96992 -0.498903 0)
(2.25954 -0.515446 7.39537e-20)
(2.56768 -0.533762 -1.46137e-19)
(2.89042 -0.567767 0)
(3.22469 -0.591877 -7.11322e-20)
(3.60099 -0.592546 0)
(4.01387 -0.583975 2.08089e-19)
(4.34709 -0.494824 0)
(4.65425 -0.296077 -2.03066e-19)
(4.94674 -0.0781129 -6.68343e-20)
(5.00945 0.239629 6.62323e-20)
(4.99272 0.765088 1.30793e-19)
(5.16141 1.27914 -1.29356e-19)
(4.84351 1.3835 0)
(3.70632 0.928905 0)
(2.75828 0.363044 0)
(2.34913 -0.306429 3.71401e-19)
(1.9859 -0.774014 1.21915e-19)
(1.61874 0.0708336 -1.19995e-19)
(1.74052 0.872572 0)
(2.99034 0.0496327 -1.1571e-19)
(2.64053 -0.271039 1.14625e-19)
(0.273532 1.17115 1.13394e-19)
(-2.23934 2.60182 0)
(-4.68676 3.04218 0)
(-6.35629 2.73498 0)
(-7.59222 2.2157 1.12999e-19)
(-8.52541 1.71056 0)
(-9.25341 1.28582 -2.35952e-19)
(-9.8232 0.959828 -3.5674e-19)
(-10.2719 0.719046 2.40317e-19)
(-10.6305 0.545045 0)
(-10.9158 0.41823 1.21551e-19)
(-11.1452 0.320658 0)
(-11.3231 0.23845 2.42215e-19)
(-11.4538 0.161612 -1.21042e-19)
(-11.5341 0.0844118 -1.20453e-19)
(-11.561 0.00371693 0)
(-11.5306 -0.0807705 -3.54486e-19)
(-11.431 -0.168388 2.33781e-19)
(-11.26 -0.257653 1.15004e-19)
(-11.0159 -0.34557 0)
(-10.6996 -0.429057 1.11068e-19)
(-10.3151 -0.505068 3.26866e-19)
(-9.86867 -0.571042 0)
(-9.36883 -0.625219 2.0811e-19)
(-8.82529 -0.666648 2.02902e-19)
(-8.24826 -0.695191 1.97658e-19)
(-7.64802 -0.711369 0)
(-7.03422 -0.71617 0)
(-6.41575 -0.710875 0)
(-5.80035 -0.696918 -8.89347e-20)
(-5.19471 -0.675773 -8.65671e-20)
(-4.60431 -0.648891 0)
(-4.03355 -0.617704 -1.65018e-19)
(-3.48569 -0.583612 -1.61278e-19)
(-2.96301 -0.547895 0)
(-2.46689 -0.511689 -1.54467e-19)
(-1.99785 -0.476004 -3.02846e-19)
(-1.55574 -0.441653 1.48514e-19)
(-1.13987 -0.409313 1.4583e-19)
(-0.749039 -0.379612 0)
(-0.381807 -0.352836 0)
(-0.0361618 -0.328951 0)
(0.290257 -0.307508 1.36083e-19)
(0.599583 -0.287743 -1.3386e-19)
(0.892903 -0.269167 -2.63314e-19)
(1.17092 -0.252128 1.29523e-19)
(1.43348 -0.236727 -1.27497e-19)
(1.68051 -0.222865 -1.25465e-19)
(1.91239 -0.210313 0)
(2.13023 -0.198945 0)
(2.33556 -0.188847 1.19745e-19)
(2.53029 -0.180607 0)
(2.71732 -0.175581 0)
(2.90158 -0.175888 -2.28536e-19)
(3.09124 -0.183799 0)
(3.297 -0.200233 -1.10664e-19)
(3.52974 -0.22278 1.08696e-19)
(3.79401 -0.244584 0)
(4.08164 -0.256012 -1.04879e-19)
(4.3731 -0.249377 0)
(4.64279 -0.222129 0)
(4.86553 -0.175806 9.91256e-20)
(5.02737 -0.116054 -1.94705e-19)
(5.13193 -0.054001 9.56183e-20)
(5.18611 0.00023555 0)
(5.18622 0.0466288 0)
(5.13778 0.0894126 -9.05693e-20)
(5.052 0.126962 0)
(4.93469 0.154763 -8.72288e-20)
(4.78899 0.168532 0)
(4.62853 0.163792 0)
(4.47015 0.142235 0)
(4.3104 0.117097 -8.04381e-20)
(4.14365 0.10213 0)
(3.94873 0.0956926 7.69417e-20)
(3.70414 0.085446 0)
(3.45516 0.0699118 0)
(3.31228 0.0579181 -1.43477e-19)
(3.22599 0.033186 1.39951e-19)
(3.17263 0.0099756 0)
(3.12976 0.0573218 0)
(3.1631 0.182874 0)
(3.07969 0.267319 -3.78166e-19)
(3.17158 0.257113 0)
(3.0215 0.156086 2.39223e-19)
(-0.0526352 0.576829 2.05628e-22)
(0.303417 -0.267461 3.04518e-19)
(0.744636 -1.11701 0)
(1.12626 -1.50495 -2.98888e-19)
(1.42906 -1.5277 0)
(1.66392 -1.32466 0)
(1.84171 -0.991769 -5.06654e-22)
(1.96855 -0.58449 1.44695e-19)
(2.04662 -0.135878 1.44186e-19)
(2.0725 0.336332 1.42464e-19)
(2.04518 0.795438 0)
(1.95482 1.20325 0)
(1.78397 1.52442 -1.39511e-19)
(1.51188 1.7234 -2.76847e-19)
(1.12103 1.7698 2.74824e-19)
(0.585006 1.65778 0)
(-0.0532925 1.40304 2.71018e-19)
(-0.707474 1.13782 -1.34164e-19)
(-1.31172 1.10044 0)
(-1.76204 1.22037 2.64139e-19)
(-2.12027 1.40565 1.3085e-19)
(-2.41262 1.64461 -2.60151e-19)
(-2.59142 1.63507 -1.28943e-19)
(-2.71074 1.26425 0)
(-2.78078 0.83442 2.55193e-19)
(-2.78319 0.557013 2.53445e-19)
(-2.75483 0.402765 0)
(-2.74512 0.337585 2.49743e-19)
(-2.77958 0.351082 0)
(-2.87072 0.387597 2.45866e-19)
(-3.02299 0.417883 1.2186e-19)
(-3.21936 0.460127 0)
(-3.43245 0.512348 0)
(-3.65246 0.550036 0)
(-3.87813 0.56408 0)
(-4.09905 0.55248 0)
(-4.3045 0.512425 0)
(-4.48892 0.449482 2.30571e-19)
(-4.64814 0.37117 -3.42629e-19)
(-4.78022 0.282005 0)
(-4.88552 0.185184 0)
(-4.96267 0.0821991 0)
(-5.00595 -0.0275997 -6.08323e-22)
(-5.00556 -0.148899 2.16923e-19)
(-4.95021 -0.290118 4.29458e-19)
(-4.83105 -0.457848 -4.24344e-19)
(-4.64649 -0.650348 -2.09845e-19)
(-4.4043 -0.853996 2.06674e-19)
(-4.11796 -1.04515 5.06089e-22)
(-3.80113 -1.19817 2.01909e-19)
(-3.46604 -1.29605 0)
(-3.12266 -1.33587 1.96718e-19)
(-2.7754 -1.32576 3.55624e-22)
(-2.42421 -1.27919 0)
(-2.07264 -1.2096 0)
(-1.73052 -1.12369 -1.86933e-19)
(-1.40819 -1.02233 0)
(-1.11527 -0.910274 0)
(-0.866241 -0.783682 1.80118e-19)
(-0.664832 -0.641073 3.55885e-19)
(-0.507647 -0.490929 -1.75867e-19)
(-0.405583 -0.339784 0)
(-0.342113 -0.229618 1.71716e-19)
(-0.251124 -0.228526 0)
(-0.0977498 -0.332137 1.67643e-19)
(0.0978835 -0.474137 1.65615e-19)
(0.307025 -0.597657 -3.27171e-19)
(0.514546 -0.67937 -1.61648e-19)
(0.716308 -0.72253 0)
(0.913531 -0.741917 3.15402e-19)
(1.11232 -0.755995 0)
(1.3182 -0.777247 4.61522e-19)
(1.54491 -0.807233 3.03992e-19)
(1.79508 -0.838708 3.00205e-19)
(2.06016 -0.867302 -2.96433e-19)
(2.33669 -0.898047 4.38789e-19)
(2.63205 -0.945128 0)
(2.95509 -1.00756 0)
(3.33123 -1.04798 -2.81404e-19)
(3.77637 -1.03154 -4.16495e-19)
(4.22648 -0.894343 0)
(4.6538 -0.600222 1.35345e-19)
(5.02785 -0.241189 0)
(5.17478 0.152325 -3.9714e-19)
(5.25027 0.655596 8.92627e-22)
(5.50244 1.21896 -7.75594e-22)
(5.58356 1.61912 2.55285e-19)
(5.29116 1.76404 0)
(4.76214 1.67036 -2.49569e-19)
(4.09917 1.03668 1.59512e-22)
(3.42988 -0.00265552 0)
(2.76326 -0.220863 0)
(3.23532 -0.290927 0)
(3.37049 -0.289473 2.32011e-19)
(0.83265 1.41989 0)
(-2.21387 3.5575 0)
(-4.34267 4.55068 0)
(-5.73654 4.49828 0)
(-6.62385 3.90323 0)
(-7.35505 3.16467 2.33854e-19)
(-7.975 2.46525 0)
(-8.49278 1.87487 2.35991e-19)
(-8.92793 1.41159 2.38584e-19)
(-9.28139 1.06621 -2.40516e-19)
(-9.58048 0.814008 0)
(-9.83007 0.629912 -2.42537e-19)
(-10.0452 0.487984 0)
(-10.2243 0.367009 -2.42522e-19)
(-10.3658 0.251188 2.41831e-19)
(-10.4622 0.13125 7.23666e-19)
(-10.5069 0.00348263 0)
(-10.4917 -0.13289 7.12061e-19)
(-10.4095 -0.275642 2.35698e-19)
(-10.2546 -0.420962 0)
(-10.0239 -0.564518 4.55624e-19)
(-9.71754 -0.70131 4.47142e-19)
(-9.33939 -0.826291 -6.56088e-19)
(-8.89639 -0.935113 0)
(-8.39793 -1.02455 -2.08221e-19)
(-7.85497 -1.09281 -2.02999e-19)
(-7.27918 -1.13957 -5.9418e-19)
(-6.68211 -1.16573 0)
(-6.07468 -1.17308 0)
(-5.46672 -1.16395 0)
(-4.86672 -1.14092 -1.78266e-19)
(-4.28163 -1.1066 0)
(-3.71688 -1.06345 0)
(-3.17632 -1.01381 1.65075e-19)
(-2.66223 -0.959837 1.61333e-19)
(-2.17565 -0.90344 0)
(-1.71666 -0.846228 0)
(-1.28449 -0.789619 3.02938e-19)
(-0.877926 -0.734745 0)
(-0.495493 -0.68249 -2.91706e-19)
(-0.135322 -0.633721 -2.86595e-19)
(0.204677 -0.589051 0)
(0.527585 -0.548771 0)
(0.836554 -0.512462 2.72018e-19)
(1.1341 -0.47902 -6.80296e-23)
(1.42182 -0.44724 -6.49423e-23)
(1.6999 -0.416512 0)
(1.96718 -0.386965 5.0956e-19)
(2.22216 -0.359204 0)
(2.46361 -0.333661 0)
(2.69087 -0.310412 0)
(2.90367 -0.289564 -2.39277e-19)
(3.10229 -0.272023 0)
(3.28848 -0.260199 4.64044e-19)
(3.46732 -0.258148 2.28365e-19)
(3.64892 -0.27045 0)
(3.8491 -0.299309 2.21079e-19)
(4.08576 -0.340155 0)
(4.37015 -0.378398 0)
(4.69518 -0.393493 6.2876e-19)
(5.02863 -0.371686 -4.1137e-19)
(5.32062 -0.316555 0)
(5.52647 -0.244023 -3.96321e-19)
(5.63197 -0.163991 1.9458e-19)
(5.65665 -0.0749764 0)
(5.62752 0.0159957 0)
(5.55589 0.0894126 0)
(5.44789 0.140082 5.43228e-19)
(5.31991 0.184185 0)
(5.18806 0.230165 1.7435e-19)
(5.05277 0.260235 0)
(4.90546 0.2516 0)
(4.74945 0.213366 0)
(4.59121 0.184411 0)
(4.41773 0.187145 0)
(4.19058 0.206227 0)
(3.91282 0.216322 3.0078e-19)
(3.64195 0.193842 0)
(3.46758 0.139073 1.43441e-19)
(3.38401 0.0700985 -4.19797e-19)
(3.33526 0.0346211 0)
(3.28568 0.0778968 0)
(3.35535 0.198824 2.58712e-19)
(3.47087 0.262774 2.52075e-19)
(3.64884 0.203777 -2.45591e-19)
(3.69984 0.0848203 -2.39109e-19)
(0.167153 0.337092 -4.60914e-19)
(0.703826 -1.37458 -4.5656e-19)
(1.12302 -2.15871 -3.01961e-19)
(1.40523 -2.24102 -1.50356e-19)
(1.57701 -1.98813 0)
(1.69842 -1.59832 2.95745e-19)
(1.80314 -1.15916 -1.47505e-19)
(1.9048 -0.700848 0)
(2.00476 -0.231088 -1.44268e-19)
(2.08401 0.241501 0)
(2.12485 0.709667 2.84921e-19)
(2.12402 1.16325 0)
(2.07498 1.592 1.39331e-19)
(1.96163 1.9796 2.76294e-19)
(1.7644 2.29166 -2.74039e-19)
(1.45201 2.47688 0)
(1.00134 2.48018 -2.70091e-19)
(0.423547 2.29867 0)
(-0.24898 2.07949 0)
(-0.837609 1.97755 -2.64519e-19)
(-1.23107 1.96455 0)
(-1.5411 1.95611 -6.23171e-22)
(-1.78892 1.79754 0)
(-1.96305 1.4176 0)
(-2.09583 0.9667 3.79945e-22)
(-2.17751 0.606056 -2.53871e-19)
(-2.21105 0.40247 -2.52272e-19)
(-2.24166 0.368018 -2.50083e-19)
(-2.33574 0.478625 0)
(-2.5276 0.668253 -4.92304e-19)
(-2.79348 0.86112 0)
(-3.10025 0.994347 -2.42325e-19)
(-3.42503 1.04765 0)
(-3.74532 1.05269 0)
(-4.04397 1.02394 2.36668e-19)
(-4.3159 0.95748 0)
(-4.56192 0.863843 -2.32976e-19)
(-4.78158 0.751941 7.71262e-22)
(-4.97398 0.627254 4.57525e-19)
(-5.13725 0.495012 -4.54383e-19)
(-5.26601 0.354479 0)
(-5.35118 0.199283 0)
(-5.38268 0.0202343 -2.2166e-19)
(-5.35323 -0.189948 0)
(-5.26129 -0.431186 -2.14818e-19)
(-5.11254 -0.694036 2.1224e-19)
(-4.91927 -0.961187 2.09612e-19)
(-4.69571 -1.21162 0)
(-4.45165 -1.42593 -2.04275e-19)
(-4.19004 -1.59182 -2.01606e-19)
(-3.90908 -1.70568 3.99219e-19)
(-3.60397 -1.76777 -1.96376e-19)
(-3.26863 -1.77722 -1.93847e-19)
(-2.90173 -1.73453 0)
(-2.51177 -1.64548 0)
(-2.11553 -1.5179 1.86642e-19)
(-1.73134 -1.35672 0)
(-1.3722 -1.17042 0)
(-1.05431 -0.967312 -3.59898e-19)
(-0.794941 -0.75428 -3.55618e-19)
(-0.586353 -0.565022 0)
(-0.393801 -0.453865 0)
(-0.188231 -0.449304 0)
(0.034698 -0.536383 0)
(0.250933 -0.666516 -3.35074e-19)
(0.433803 -0.785278 3.30958e-19)
(0.578357 -0.861902 3.26918e-19)
(0.696669 -0.895718 6.46102e-19)
(0.805922 -0.90377 0)
(0.920196 -0.908363 2.77745e-22)
(1.04945 -0.927686 0)
(1.20189 -0.97276 -3.07746e-19)
(1.38729 -1.0396 4.8229e-22)
(1.60689 -1.09733 -3.00177e-19)
(1.85095 -1.13914 2.96413e-19)
(2.09489 -1.18326 5.98914e-22)
(2.34806 -1.25691 0)
(2.64853 -1.37762 2.85747e-19)
(3.01679 -1.49544 2.81342e-19)
(3.47636 -1.5324 5.5593e-19)
(4.015 -1.40382 0)
(4.53966 -1.05124 -2.7157e-19)
(4.98072 -0.541797 0)
(5.28038 0.00650321 5.30713e-19)
(5.41753 0.532501 -2.6167e-19)
(5.4808 1.02457 2.58482e-19)
(5.59001 1.4727 -2.55253e-19)
(5.75506 1.93575 -5.05721e-19)