/*--------------------------------*- C++ -*----------------------------------*\
  =========                 |
  \\      /  F ield         | OpenFOAM: The Open Source CFD Toolbox
   \\    /   O peration     | Website:  https://openfoam.org
    \\  /    A nd           | Version:  6
     \\/     M anipulation  |
\*---------------------------------------------------------------------------*/
FoamFile
{
    version     2.0;
    format      ascii;
    class       volVectorField;
    location    "0.5";
    object      UMean;
}
// * * * * * * * * * * * * * * * * * * * * * * * * * * * * * * * * * * * * * //

dimensions      [0 1 -1 0 0 0 0];

internalField   nonuniform List<vector> 
12225
(
(9.8329 0.0208681 0)
(9.53513 0.0343517 0)
(9.23845 0.0371656 0)
(8.93797 0.0383344 0)
(8.64088 0.039516 0)
(8.35325 0.0404796 0)
(8.07673 0.0410144 0)
(7.81098 0.0412939 0)
(7.55419 0.0413971 0)
(7.30602 0.041582 0)
(7.06406 0.0417774 0)
(6.82929 0.0422784 0)
(6.59674 0.0431076 0)
(6.36962 0.0444024 0)
(6.13684 0.0472974 0)
(5.90712 0.0499179 0)
(5.65792 0.0592146 0)
(5.40727 0.0593386 0)
(10.0161 0.0405036 0)
(10.0791 0.0686225 0)
(10.1209 0.0738892 0)
(10.1366 0.0761122 0)
(10.134 0.0791812 0)
(10.1203 0.0822847 0)
(10.0984 0.0848435 0)
(10.0698 0.0869519 0)
(10.0341 0.08897 0)
(9.99243 0.0910436 0)
(9.94399 0.09348 0)
(9.89078 0.0962004 0)
(9.8302 0.0998982 0)
(9.76534 0.104238 0)
(9.69093 0.110995 0)
(9.61107 0.11899 0)
(9.51894 0.131989 0)
(9.41381 0.145568 0)
(10.0004 0.0358187 0)
(10.0323 0.0631619 0)
(10.0625 0.0662955 0)
(10.0815 0.0664484 0)
(10.0929 0.0688024 0)
(10.1014 0.0721382 0)
(10.1092 0.0752448 0)
(10.1162 0.0781004 0)
(10.1218 0.080977 0)
(10.1253 0.0842245 0)
(10.1269 0.0879567 0)
(10.1259 0.0924273 0)
(10.1232 0.097968 0)
(10.1172 0.104893 0)
(10.1103 0.114327 0)
(10.0993 0.12614 0)
(10.0897 0.142777 0)
(10.0756 0.160781 0)
(10.0089 0.028451 0)
(10.0321 0.0550586 0)
(10.0562 0.0598236 0)
(10.0721 0.0606744 0)
(10.0806 0.0636695 0)
(10.086 0.0678878 0)
(10.0907 0.0719302 0)
(10.0953 0.0755644 0)
(10.0992 0.0791526 0)
(10.1022 0.0830313 0)
(10.104 0.0874787 0)
(10.1046 0.0926756 0)
(10.1043 0.0990441 0)
(10.1032 0.106933 0)
(10.1014 0.117144 0)
(10.1001 0.130148 0)
(10.0997 0.146503 0)
(10.1034 0.165804 0)
(10.0011 0.0212457 0)
(10.0192 0.0477899 0)
(10.0405 0.0557713 0)
(10.0562 0.0583618 0)
(10.0654 0.0620165 0)
(10.0711 0.0667618 0)
(10.0758 0.0713634 0)
(10.0802 0.0754706 0)
(10.0839 0.0794106 0)
(10.0867 0.0835782 0)
(10.0883 0.0883081 0)
(10.089 0.0938269 0)
(10.0887 0.100509 0)
(10.0879 0.108714 0)
(10.0867 0.118972 0)
(10.0864 0.131718 0)
(10.0869 0.146854 0)
(10.091 0.164306 0)
(9.99784 0.0160409 0)
(10.0113 0.041702 0)
(10.0293 0.0522227 0)
(10.0441 0.0562894 0)
(10.0535 0.0601538 0)
(10.0593 0.0648914 0)
(10.0639 0.06966 0)
(10.0682 0.0740386 0)
(10.072 0.0782397 0)
(10.0751 0.0826797 0)
(10.0771 0.0876812 0)
(10.0782 0.0935375 0)
(10.0786 0.100494 0)
(10.0787 0.108948 0)
(10.0786 0.119105 0)
(10.0794 0.131375 0)
(10.0812 0.145248 0)
(10.0855 0.160621 0)
(9.99709 0.0135736 0)
(10.0071 0.0368389 0)
(10.0222 0.0485264 0)
(10.0359 0.0536068 0)
(10.0453 0.0575286 0)
(10.0512 0.0621155 0)
(10.0557 0.0669812 0)
(10.0599 0.0716595 0)
(10.0636 0.0762121 0)
(10.0667 0.0809982 0)
(10.069 0.0863399 0)
(10.0706 0.0925359 0)
(10.0716 0.0997765 0)
(10.0724 0.108378 0)
(10.0732 0.118399 0)
(10.0749 0.130081 0)
(10.0775 0.142872 0)
(10.082 0.156655 0)
(10.0029 0.0138133 0)
(10.0105 0.0344331 0)
(10.0229 0.0465144 0)
(10.0352 0.0524414 0)
(10.0443 0.056545 0)
(10.0503 0.0610013 0)
(10.0549 0.0658684 0)
(10.0589 0.0707349 0)
(10.0627 0.0755379 0)
(10.0659 0.0805617 0)
(10.0685 0.0861056 0)
(10.0705 0.0924667 0)
(10.072 0.0997841 0)
(10.0735 0.108302 0)
(10.0751 0.117971 0)
(10.0775 0.128944 0)
(10.0806 0.140694 0)
(10.0853 0.153246 0)
(10.0009 0.00949304 0)
(10.0071 0.0286509 0)
(10.0174 0.0412119 0)
(10.0284 0.0483622 0)
(10.0374 0.0532727 0)
(10.0437 0.0580845 0)
(10.0485 0.0632295 0)
(10.0527 0.0684699 0)
(10.0566 0.0736982 0)
(10.0602 0.0791215 0)
(10.0632 0.0849956 0)
(10.0658 0.0916029 0)
(10.0681 0.0990427 0)
(10.0705 0.107509 0)
(10.0731 0.116884 0)
(10.0764 0.127296 0)
(10.0803 0.138241 0)
(10.0857 0.149882 0)
(9.99981 0.00560414 0)
(10.0043 0.0230943 0)
(10.0126 0.0355194 0)
(10.0224 0.0433943 0)
(10.0308 0.0488934 0)
(10.0373 0.0539313 0)
(10.0423 0.0591894 0)
(10.0467 0.0646094 0)
(10.0509 0.0700763 0)
(10.0548 0.0757206 0)
(10.0584 0.0817506 0)
(10.0617 0.0884224 0)
(10.0648 0.0958184 0)
(10.0681 0.104085 0)
(10.0716 0.113083 0)
(10.0757 0.12291 0)
(10.0805 0.13312 0)
(10.0864 0.143896 0)
(10.0055 0.0101747 0)
(10.0087 0.0251296 0)
(10.0154 0.0366081 0)
(10.0238 0.0445481 0)
(10.0316 0.0502725 0)
(10.038 0.0553037 0)
(10.043 0.0604138 0)
(10.0475 0.0657219 0)
(10.0518 0.0711561 0)
(10.056 0.0767946 0)
(10.0599 0.0827806 0)
(10.0638 0.08933 0)
(10.0675 0.0964917 0)
(10.0714 0.10439 0)
(10.0755 0.112855 0)
(10.0804 0.121998 0)
(10.0856 0.131367 0)
(10.0921 0.141224 0)
(9.99214 0.00458666 0)
(9.99509 0.0179369 0)
(10.0011 0.0289462 0)
(10.0087 0.0371971 0)
(10.0161 0.043421 0)
(10.0225 0.0487998 0)
(10.0278 0.0541136 0)
(10.0326 0.0596087 0)
(10.0372 0.0652627 0)
(10.0417 0.0711261 0)
(10.0461 0.0772805 0)
(10.0504 0.0839116 0)
(10.0546 0.0910332 0)
(10.0592 0.0987737 0)
(10.0639 0.10693 0)
(10.0693 0.115648 0)
(10.075 0.124445 0)
(10.0818 0.133674 0)
(10.0007 0.0078217 0)
(10.0029 0.0194557 0)
(10.0079 0.0295407 0)
(10.0145 0.0375211 0)
(10.0212 0.0437838 0)
(10.0273 0.0491953 0)
(10.0326 0.0544369 0)
(10.0374 0.0598075 0)
(10.042 0.0653454 0)
(10.0465 0.0711002 0)
(10.051 0.0771193 0)
(10.0556 0.083545 0)
(10.0601 0.0903714 0)
(10.0649 0.0977028 0)
(10.07 0.105345 0)
(10.0756 0.113427 0)
(10.0816 0.121514 0)
(10.0883 0.12994 0)
(9.99861 0.0045629 0)
(10.0009 0.0151334 0)
(10.0053 0.0244486 0)
(10.0112 0.0321344 0)
(10.0175 0.0384373 0)
(10.0235 0.0439732 0)
(10.029 0.0492902 0)
(10.0341 0.0546906 0)
(10.039 0.0602434 0)
(10.0439 0.0659967 0)
(10.0488 0.0719595 0)
(10.0539 0.0782434 0)
(10.059 0.0848152 0)
(10.0643 0.091789 0)
(10.0699 0.0989575 0)
(10.076 0.106492 0)
(10.0824 0.113929 0)
(10.0895 0.1217 0)
(9.99827 0.00355989 0)
(10.0002 0.0133318 0)
(10.0039 0.0218499 0)
(10.009 0.0291008 0)
(10.0147 0.0352986 0)
(10.0205 0.0408357 0)
(10.0261 0.0461019 0)
(10.0315 0.0513767 0)
(10.0368 0.0567686 0)
(10.0421 0.0623431 0)
(10.0475 0.0680925 0)
(10.0531 0.0740902 0)
(10.0588 0.0802804 0)
(10.0647 0.0867564 0)
(10.0708 0.0933261 0)
(10.0773 0.100153 0)
(10.0841 0.106825 0)
(10.0914 0.113751 0)
(10.0035 0.00245041 0)
(10.0048 0.0109546 0)
(10.008 0.0183689 0)
(10.0126 0.024835 0)
(10.018 0.0305609 0)
(10.0236 0.0358185 0)
(10.0292 0.0408651 0)
(10.0348 0.0459044 0)
(10.0404 0.0510239 0)
(10.0462 0.0562873 0)
(10.052 0.0616761 0)
(10.0581 0.0672472 0)
(10.0643 0.0729268 0)
(10.0707 0.0788052 0)
(10.0774 0.0846885 0)
(10.0843 0.0907636 0)
(10.0914 0.0966216 0)
(10.099 0.10272 0)
(9.99678 0.0023501 0)
(9.99772 0.00882244 0)
(10.0005 0.0147129 0)
(10.0047 0.0200753 0)
(10.0098 0.0250294 0)
(10.0154 0.029722 0)
(10.0212 0.034292 0)
(10.0271 0.0388717 0)
(10.0332 0.0435213 0)
(10.0394 0.0482937 0)
(10.0457 0.053159 0)
(10.0523 0.0581558 0)
(10.059 0.0631962 0)
(10.066 0.0683613 0)
(10.0731 0.0734652 0)
(10.0805 0.0786983 0)
(10.088 0.0836819 0)
(10.0958 0.0888666 0)
(9.99772 0.00270456 0)
(9.9987 0.00697384 0)
(10.0013 0.011148 0)
(10.0055 0.0151492 0)
(10.0106 0.0190018 0)
(10.0162 0.0227878 0)
(10.0222 0.0265758 0)
(10.0284 0.0304328 0)
(10.0348 0.0343756 0)
(10.0413 0.0384298 0)
(10.048 0.0425539 0)
(10.055 0.0467718 0)
(10.062 0.0509954 0)
(10.0693 0.0552921 0)
(10.0767 0.0594945 0)
(10.0843 0.0637737 0)
(10.0919 0.0678006 0)
(10.0998 0.0719793 0)
(10.0025 0.00127919 0)
(10.0037 0.00337612 0)
(10.0066 0.00561828 0)
(10.011 0.00803199 0)
(10.0163 0.0106284 0)
(10.0223 0.0134001 0)
(10.0285 0.0163068 0)
(10.035 0.0193214 0)
(10.0417 0.022414 0)
(10.0486 0.0255925 0)
(10.0557 0.0288208 0)
(10.063 0.0321157 0)
(10.0704 0.0353978 0)
(10.0779 0.0387164 0)
(10.0855 0.0419315 0)
(10.0932 0.0451885 0)
(10.101 0.0482222 0)
(10.1088 0.0513765 0)
(10.0055 -0.00104164 0)
(10.0068 -0.000989366 0)
(10.01 -0.000623023 0)
(10.0148 0.000271873 0)
(10.0207 0.00169186 0)
(10.0271 0.00349058 0)
(10.0338 0.00549558 0)
(10.0406 0.00761045 0)
(10.0477 0.00979854 0)
(10.0549 0.012081 0)
(10.0623 0.0144406 0)
(10.0698 0.0168881 0)
(10.0775 0.0193493 0)
(10.0852 0.0218503 0)
(10.093 0.0242703 0)
(10.1008 0.026716 0)
(10.1086 0.0289745 0)
(10.1164 0.0313124 0)
(10.0046 -0.00125388 0)
(10.0061 -0.0034927 0)
(10.0099 -0.00494644 0)
(10.0155 -0.00543011 0)
(10.022 -0.00504837 0)
(10.029 -0.00409243 0)
(10.036 -0.00284105 0)
(10.0432 -0.00143591 0)
(10.0505 7.83032e-05 0)
(10.058 0.00171147 0)
(10.0656 0.00343718 0)
(10.0733 0.00524813 0)
(10.0811 0.00707675 0)
(10.089 0.00894068 0)
(10.0969 0.0107457 0)
(10.1047 0.0125761 0)
(10.1126 0.0142633 0)
(10.1205 0.0160161 0)
(10.0085 -0.00120225 0)
(10.0107 -0.00599677 0)
(10.0154 -0.00930642 0)
(10.022 -0.0110154 0)
(10.0294 -0.0114528 0)
(10.0369 -0.011165 0)
(10.0443 -0.0105668 0)
(10.0517 -0.00981181 0)
(10.0593 -0.00891406 0)
(10.067 -0.00785461 0)
(10.0749 -0.00666935 0)
(10.0828 -0.00538497 0)
(10.0907 -0.00407229 0)
(10.0987 -0.00272366 0)
(10.1065 -0.00141933 0)
(10.1144 -9.12975e-05 0)
(10.1222 0.00111949 0)
(10.13 0.00238467 0)
(9.99921 -0.00333274 0)
(10.0024 -0.0103475 0)
(10.0086 -0.015123 0)
(10.0166 -0.0174889 0)
(10.025 -0.0182176 0)
(10.0329 -0.0182383 0)
(10.0405 -0.0180494 0)
(10.048 -0.0177328 0)
(10.0557 -0.0172395 0)
(10.0637 -0.0165468 0)
(10.0717 -0.0157077 0)
(10.0797 -0.0147707 0)
(10.0877 -0.0138056 0)
(10.0957 -0.0128135 0)
(10.1036 -0.0118572 0)
(10.1115 -0.0108878 0)
(10.1193 -0.0100117 0)
(10.1271 -0.00910404 0)
(10.0042 -0.00572744 0)
(10.0084 -0.015023 0)
(10.0163 -0.020908 0)
(10.0258 -0.0235312 0)
(10.035 -0.024393 0)
(10.0432 -0.024742 0)
(10.0509 -0.0249899 0)
(10.0586 -0.025072 0)
(10.0665 -0.0248997 0)
(10.0746 -0.0244902 0)
(10.0828 -0.0239378 0)
(10.0909 -0.0233102 0)
(10.099 -0.0226697 0)
(10.107 -0.022013 0)
(10.115 -0.0213858 0)
(10.1229 -0.0207455 0)
(10.1308 -0.0201769 0)
(10.1386 -0.0195784 0)
(9.99815 -0.00699597 0)
(10.0041 -0.0190227 0)
(10.0143 -0.0254619 0)
(10.0255 -0.0278224 0)
(10.0355 -0.0287046 0)
(10.0439 -0.0294481 0)
(10.0518 -0.0301632 0)
(10.0597 -0.0306159 0)
(10.0679 -0.0307273 0)
(10.0763 -0.0305783 0)
(10.0846 -0.0302941 0)
(10.0928 -0.0299436 0)
(10.1009 -0.0295739 0)
(10.109 -0.0291799 0)
(10.117 -0.0288008 0)
(10.125 -0.0284077 0)
(10.1328 -0.0280716 0)
(10.1406 -0.0277107 0)
(10.0023 -0.0113627 0)
(10.0109 -0.0261618 0)
(10.024 -0.0320489 0)
(10.0367 -0.0334505 0)
(10.0469 -0.0341941 0)
(10.0553 -0.0353169 0)
(10.0631 -0.0364462 0)
(10.0712 -0.0371897 0)
(10.0796 -0.0375129 0)
(10.088 -0.037564 0)
(10.0964 -0.0374849 0)
(10.1046 -0.0373433 0)
(10.1127 -0.0371684 0)
(10.1207 -0.0369635 0)
(10.1287 -0.0367533 0)
(10.1366 -0.0365355 0)
(10.1444 -0.0363496 0)
(10.1521 -0.0361652 0)
(10.0014 -0.0146015 0)
(10.0142 -0.0324623 0)
(10.0306 -0.0369946 0)
(10.0444 -0.0370469 0)
(10.0545 -0.0374176 0)
(10.0626 -0.0386125 0)
(10.0705 -0.0398715 0)
(10.0788 -0.0407597 0)
(10.0874 -0.0412963 0)
(10.096 -0.0416449 0)
(10.1045 -0.041924 0)
(10.1129 -0.0421701 0)
(10.1212 -0.0423948 0)
(10.1295 -0.0425859 0)
(10.1377 -0.0427695 0)
(10.1457 -0.0429293 0)
(10.1537 -0.0431278 0)
(10.1616 -0.0432931 0)
(10.0011 -0.0193304 0)
(10.0208 -0.0397658 0)
(10.042 -0.0430911 0)
(10.0576 -0.0422266 0)
(10.0685 -0.0421194 0)
(10.0778 -0.0428274 0)
(10.0872 -0.043523 0)
(10.0971 -0.0438944 0)
(10.1072 -0.0440223 0)
(10.1172 -0.0440742 0)
(10.1269 -0.0441139 0)
(10.1364 -0.0441746 0)
(10.1458 -0.0442202 0)
(10.155 -0.0442865 0)
(10.164 -0.0443297 0)
(10.1727 -0.0444307 0)
(10.1814 -0.0445232 0)
(10.1896 -0.0447614 0)
(10.0157 -0.0290401 0)
(10.0587 -0.050593 0)
(10.0939 -0.0552244 0)
(10.1163 -0.0562379 0)
(10.1296 -0.0574732 0)
(10.1384 -0.0588869 0)
(10.1448 -0.0599651 0)
(10.1493 -0.0606104 0)
(10.152 -0.0609552 0)
(10.1529 -0.0611635 0)
(10.1522 -0.0612919 0)
(10.1501 -0.0613908 0)
(10.1469 -0.061428 0)
(10.1429 -0.0614576 0)
(10.1379 -0.0614256 0)
(10.1326 -0.0614224 0)
(10.1262 -0.0613777 0)
(10.1201 -0.0614293 0)
(9.90435 -0.0125252 0)
(9.74013 -0.0232396 0)
(9.57725 -0.0261652 0)
(9.41099 -0.0274271 0)
(9.24588 -0.0285561 0)
(9.08636 -0.0295515 0)
(8.9342 -0.0302642 0)
(8.78939 -0.0306986 0)
(8.65123 -0.0309382 0)
(8.5193 -0.0310579 0)
(8.39315 -0.0310989 0)
(8.27283 -0.0310795 0)
(8.15779 -0.0310152 0)
(8.04837 -0.0309068 0)
(7.94348 -0.0307859 0)
(7.84416 -0.0306215 0)
(7.7482 -0.0305024 0)
(7.65839 -0.0302738 0)
(-0.106547 0.0321188 -3.25543e-22)
(-0.216463 -0.0462095 3.29211e-22)
(-0.267045 -0.114037 0)
(-0.259676 -0.188872 0)
(-0.158858 -0.261121 0)
(0.00682605 -0.310177 -3.28153e-22)
(0.210967 -0.333206 0)
(0.433645 -0.336717 0)
(0.662386 -0.325606 0)
(0.886454 -0.302151 0)
(1.09626 -0.269418 4.15241e-22)
(1.28501 -0.233862 0)
(1.44911 -0.199437 0)
(1.58504 -0.16501 0)
(1.69148 -0.130128 0)
(1.76959 -0.0972543 6.38408e-22)
(1.82094 -0.0677719 0)
(1.84729 -0.0416352 0)
(1.85051 -0.0179204 0)
(1.83149 0.00484233 0)
(1.79072 0.0267596 0)
(1.72345 0.0507739 0)
(1.6308 0.0738232 0)
(1.51433 0.0885885 6.69799e-22)
(1.38043 0.0984414 -6.53747e-22)
(1.23073 0.100857 6.37793e-22)
(1.06831 0.0950798 6.23663e-22)
(0.898128 0.0878193 0)
(0.722439 0.0791511 0)
(0.546564 0.0805242 -6.03011e-22)
(0.36195 0.0959388 -6.04922e-22)
(0.179105 0.0935038 0)
(-0.00484899 0.07714 0)
(-0.178 0.0621882 -6.40073e-22)
(-0.33973 0.0515033 0)
(-0.497922 0.0558206 0)
(-0.657587 0.0526149 6.99314e-22)
(-0.808451 0.0429232 0)
(-0.95527 0.0354672 7.45846e-22)
(-1.10262 0.0408127 1.54366e-21)
(-1.25437 0.0505464 0)
(-1.40628 0.0517416 0)
(-1.55135 0.0397522 0)
(-1.67789 0.024366 0)
(-1.78745 0.0190949 0)
(-1.87652 0.0118772 1.89041e-21)
(-1.96382 0.000489386 1.94036e-21)
(-2.03344 -0.00873725 1.98513e-21)
(-2.09882 -0.00895527 0)
(-2.17645 0.00252157 -2.05076e-21)
(-2.25873 0.00389659 0)
(-2.32734 -0.00337785 2.09503e-21)
(-2.38523 -0.0122002 2.10862e-21)
(-2.43705 -0.0107404 0)
(-2.50525 -0.0110997 0)
(-2.57646 -0.00467681 0)
(-2.65368 -0.00773705 2.10805e-21)
(-2.72789 -0.0183592 0)
(-2.77619 -0.0258721 0)
(-2.82496 -0.0339681 0)
(-2.86438 -0.0328377 0)
(-2.91427 -0.0142041 0)
(-2.99709 0.00257837 0)
(-3.08112 0.00440094 0)
(-3.15558 0.00114252 0)
(-3.22953 0.00354309 -2.1435e-21)
(-3.29498 0.000543902 0)
(-3.34752 -0.00435649 0)
(-3.38995 -0.00965964 2.21873e-21)
(-3.42805 -0.0118812 2.23739e-21)
(-3.46118 -0.0163171 0)
(-3.48739 -0.012559 -2.25246e-21)
(-3.52729 -0.00146662 2.24813e-21)
(-3.57183 0.0049634 0)
(-3.62295 0.00868561 -2.22699e-21)
(-3.68455 0.00940989 0)
(-3.74712 0.00717252 0)
(-3.8191 0.0167875 2.16035e-21)
(-3.90632 0.0234446 0)
(-4.00166 0.0150681 -2.09042e-21)
(-4.07262 0.00615049 0)
(-4.14336 -0.00900051 1.999e-21)
(-4.17816 -0.01863 1.94444e-21)
(-4.21812 -0.0218278 1.88349e-21)
(-4.20837 -0.0416456 3.63515e-21)
(-4.18833 -0.046954 -3.4946e-21)
(-4.15245 -0.0400962 0)
(-4.13382 -0.0177073 0)
(-4.15795 -0.00780394 0)
(-4.1635 -0.0128861 -2.87603e-21)
(-4.17966 -0.00199639 -2.74007e-21)
(-4.21499 0.00261449 2.62123e-21)
(-4.23879 0.003273 0)
(-4.27888 0.00419704 -2.44888e-21)
(-4.30461 -0.00779758 -2.40381e-21)
(-4.29537 -0.0202215 -2.38147e-21)
(-4.26302 -0.0296302 0)
(-4.21273 -0.0339551 0)
(-4.15525 -0.0366865 0)
(-4.09774 -0.0331674 -2.20214e-21)
(-4.03577 -0.0361157 0)
(-3.97417 -0.0292711 0)
(-3.94924 -0.022577 1.72365e-21)
(-3.91824 -0.0215368 0)
(-3.88481 -0.027904 0)
(-3.83504 -0.0204052 1.1026e-21)
(-3.85754 -0.0120586 0)
(-3.84768 -0.0213958 0)
(-3.84071 -0.0176358 -6.04709e-22)
(-3.83358 -0.0186553 -4.87037e-22)
(-3.81901 -0.0157106 0)
(-3.80231 -0.0207306 2.75835e-22)
(-3.74388 -0.0313519 0)
(-3.65973 -0.0403951 -3.1359e-23)
(-3.5509 -0.0474923 0)
(-3.42334 -0.0537999 3.05623e-22)
(-3.27402 -0.060106 5.11935e-22)
(-3.10828 -0.0651809 0)
(-2.92825 -0.0690121 0)
(-2.73844 -0.0724772 0)
(-2.54445 -0.0722053 0)
(-2.33898 -0.076298 0)
(-2.12889 -0.0679925 0)
(-1.96195 -0.0546907 0)
(-1.7958 -0.0523068 2.58186e-21)
(-1.62905 -0.0503015 -2.79436e-21)
(-1.46498 -0.053622 0)
(-1.29218 -0.0593993 0)
(-1.114 -0.0603831 0)
(-0.9342 -0.0564724 0)
(-0.766205 -0.053102 -6.94713e-21)
(-0.611856 -0.0513525 0)
(-0.445028 -0.0503141 7.28488e-21)
(-0.328144 -0.033895 -7.40402e-21)
(-0.264676 -0.0231634 0)
(-0.193197 -0.0252377 0)
(-0.111021 -0.0211 0)
(-0.0664566 -0.0165759 7.2367e-21)
(0.00252358 -0.0224898 7.11307e-21)
(0.101204 -0.0261997 0)
(0.207446 -0.0263307 6.92922e-21)
(0.316752 -0.0276932 6.89506e-21)
(0.441025 -0.0326173 -6.89979e-21)
(0.567615 -0.0342454 0)
(0.680783 -0.0326843 0)
(0.790738 -0.0326387 -7.05285e-21)
(0.905104 -0.0334871 0)
(1.02484 -0.0336754 0)
(1.14492 -0.0330798 0)
(1.26424 -0.0324941 0)
(1.38024 -0.0311047 7.55636e-21)
(1.49396 -0.0294875 7.65835e-21)
(1.60125 -0.0262916 0)
(1.70774 -0.0255981 7.81254e-21)
(1.80859 -0.0239487 0)
(1.88396 -0.0178932 0)
(1.93465 -0.013012 7.79963e-21)
(1.97921 -0.0105269 0)
(2.02522 -0.0084675 7.57944e-21)
(2.07115 -0.0058682 0)
(2.11171 -0.00267453 0)
(2.14113 0.000542131 7.18764e-21)
(2.1563 0.00247617 0)
(2.1646 0.00223801 6.96205e-21)
(2.17759 0.000957947 0)
(2.19205 -0.000197499 0)
(2.2049 -0.00195013 0)
(2.21664 -0.00429838 -6.72032e-21)
(2.22882 -0.00516263 0)
(2.23665 -0.00421948 6.67918e-21)
(2.23592 -0.00196762 0)
(2.22009 0.000378454 0)
(2.19598 0.00286488 0)
(2.15953 0.00407502 0)
(2.12798 0.00774415 0)
(2.07111 0.0103958 0)
(2.02267 0.01733 0)
(1.91245 0.0150823 -1.26569e-20)
(1.87834 0.020229 0)
(1.69848 0.00899264 0)
(-0.0338609 0.328818 1.02699e-21)
(-0.0452275 0.219325 -1.03777e-21)
(0.000427558 0.0564888 0)
(0.155371 -0.164279 7.44514e-22)
(0.369125 -0.389835 0)
(0.601902 -0.571805 3.26646e-22)
(0.833803 -0.686724 -8.13141e-22)
(1.05851 -0.738048 -8.56561e-22)
(1.26914 -0.73563 0)
(1.45973 -0.694095 -9.92814e-22)
(1.62515 -0.628065 -4.13926e-22)
(1.76305 -0.548893 0)
(1.87553 -0.459953 0)
(1.95877 -0.367002 0)
(2.01319 -0.280089 0)
(2.048 -0.200492 -6.36904e-22)
(2.06665 -0.126712 0)
(2.06603 -0.0579603 1.55237e-21)
(2.04402 0.00836309 0)
(2.0006 0.0756388 0)
(1.93592 0.140425 -1.56346e-21)
(1.84884 0.20801 0)
(1.73912 0.273078 1.52046e-21)
(1.61355 0.328385 -6.67461e-22)
(1.47909 0.368415 6.51241e-22)
(1.32754 0.398613 -6.3513e-22)
(1.15494 0.430706 -6.20838e-22)
(0.969284 0.454087 0)
(0.772157 0.465804 0)
(0.570755 0.470029 6.00039e-22)
(0.365262 0.459197 -7.6012e-22)
(0.169475 0.427536 0)
(-0.0249611 0.415784 0)
(-0.223638 0.407425 6.37477e-22)
(-0.413617 0.38182 0)
(-0.598448 0.355972 0)
(-0.781135 0.333915 -6.96686e-22)
(-0.95022 0.317166 0)
(-1.12385 0.315092 9.22267e-22)
(-1.29296 0.316528 -1.53854e-21)
(-1.45345 0.315893 0)
(-1.60312 0.298533 0)
(-1.74942 0.276185 -3.78636e-21)
(-1.88432 0.248918 -3.90208e-21)
(-1.99795 0.199042 -4.01521e-21)
(-2.11056 0.158085 2.23748e-21)
(-2.21539 0.149368 -1.93538e-21)
(-2.317 0.150778 -6.29381e-21)
(-2.40284 0.13987 4.39e-21)
(-2.47555 0.129827 2.0461e-21)
(-2.54615 0.119734 0)
(-2.6169 0.116575 -2.09068e-21)
(-2.70394 0.108254 2.45504e-21)
(-2.78752 0.106682 0)
(-2.88711 0.124235 0)
(-2.98952 0.127679 0)
(-3.08476 0.120149 -2.10373e-21)
(-3.17858 0.118774 0)
(-3.25784 0.100448 4.5241e-21)
(-3.359 0.0888663 0)
(-3.48424 0.113599 4.51199e-21)
(-3.57829 0.128979 0)
(-3.6588 0.130199 -4.5359e-21)
(-3.72402 0.119934 0)
(-3.77829 0.101712 4.59701e-21)
(-3.82074 0.0793869 -2.49748e-21)
(-3.84756 0.0553933 0)
(-3.86832 0.0380407 -4.71799e-21)
(-3.88437 0.0275656 -2.21537e-21)
(-3.90086 0.0238681 -2.23419e-21)
(-3.92312 0.0283363 0)
(-3.94564 0.0355662 -2.53195e-21)
(-3.97472 0.0422289 -2.2455e-21)
(-4.00707 0.0497876 0)
(-4.05212 0.0672212 2.22444e-21)
(-4.10035 0.0871034 -4.70038e-21)
(-4.15123 0.0986713 0)
(-4.22123 0.110634 -2.15818e-21)
(-4.28529 0.110238 0)
(-4.33681 0.100309 6.52516e-21)
(-4.37393 0.0814397 0)
(-4.43846 0.0722881 -6.22142e-21)
(-4.46909 0.0477884 -1.94266e-21)
(-4.48366 0.00784413 2.0865e-21)
(-4.46779 -0.0386785 4.02842e-21)
(-4.484 -0.0435103 -3.88804e-21)
(-4.48799 -0.0347609 0)
(-4.49197 -0.0236625 0)
(-4.52688 0.0053936 0)
(-4.56277 0.0204382 9.10209e-21)
(-4.59334 0.0216446 2.73797e-21)
(-4.62279 0.0230608 -2.61875e-21)
(-4.6369 0.015682 0)
(-4.63919 -0.00999797 -2.99726e-21)
(-4.61329 -0.0468451 2.40105e-21)
(-4.55838 -0.0816852 2.37867e-21)
(-4.48361 -0.109812 0)
(-4.39537 -0.124881 0)
(-4.30469 -0.128154 0)
(-4.20504 -0.127082 2.20078e-21)
(-4.12754 -0.107015 0)
(-4.06312 -0.0816357 -4.21703e-21)
(-4.02382 -0.0671395 -5.554e-21)
(-3.977 -0.0636066 3.41854e-21)
(-3.97187 -0.0415127 0)
(-3.97413 -0.0218441 1.48985e-21)
(-4.00149 -0.0197627 0)
(-3.9984 -0.027809 1.91856e-21)
(-3.98266 -0.03671 -1.04622e-21)
(-3.95964 -0.045446 -9.25096e-22)
(-3.90339 -0.0667882 0)
(-3.81667 -0.099755 -1.22655e-21)
(-3.69463 -0.131063 6.93768e-22)
(-3.5595 -0.156514 3.18523e-23)
(-3.4065 -0.178417 0)
(-3.24044 -0.197687 -3.0469e-22)
(-3.05874 -0.214088 -1.27485e-21)
(-2.86804 -0.22699 0)
(-2.66877 -0.235917 -1.76288e-21)
(-2.46591 -0.240119 -2.30702e-21)
(-2.25771 -0.243192 -2.86337e-21)
(-2.07178 -0.233357 0)
(-1.88316 -0.217601 0)
(-1.69295 -0.209629 0)
(-1.50131 -0.205174 2.37908e-21)
(-1.31455 -0.201972 2.79202e-21)
(-1.12293 -0.207253 0)
(-0.928204 -0.213498 6.0739e-21)
(-0.741684 -0.20954 6.34007e-21)
(-0.554359 -0.199372 0)
(-0.370957 -0.187266 6.94221e-21)
(-0.206074 -0.172726 1.3907e-20)
(-0.0915805 -0.140923 -7.27851e-21)
(-0.0138193 -0.111158 -6.98572e-21)
(0.0809035 -0.104435 0)
(0.174425 -0.0971391 0)
(0.266937 -0.0915247 0)
(0.367401 -0.0970897 -7.23092e-21)
(0.492042 -0.108743 6.71261e-21)
(0.621809 -0.116493 1.36405e-20)
(0.752779 -0.121849 -6.92179e-21)
(0.880508 -0.12525 6.59461e-21)
(1.01256 -0.129828 6.89224e-21)
(1.14204 -0.129986 0)
(1.26848 -0.127675 0)
(1.4027 -0.128172 -6.77494e-21)
(1.54218 -0.129503 0)
(1.68527 -0.129483 0)
(1.8263 -0.12719 1.44057e-20)
(1.96621 -0.12419 0)
(2.10249 -0.120042 7.33083e-21)
(2.23573 -0.113774 -7.6504e-21)
(2.36055 -0.105301 0)
(2.47782 -0.0981866 7.60916e-21)
(2.57563 -0.0870721 0)
(2.65467 -0.073608 0)
(2.72489 -0.0657268 -7.79192e-21)
(2.79477 -0.0628196 1.51677e-20)
(2.86277 -0.0601636 -7.57191e-21)
(2.92655 -0.0542982 0)
(2.98148 -0.0451505 0)
(3.02463 -0.0348104 6.99721e-21)
(3.05709 -0.027036 0)
(3.08606 -0.0244203 6.77704e-21)
(3.11545 -0.0250522 0)
(3.13904 -0.0257049 0)
(3.16214 -0.0244976 0)
(3.18357 -0.0226252 6.71364e-21)
(3.19847 -0.0198655 0)
(3.20293 -0.0156982 -6.67257e-21)
(3.19333 -0.00976756 0)
(3.16907 -0.00351348 0)
(3.14465 0.00241426 1.30006e-20)
(3.11266 0.00641813 -1.28887e-20)
(3.08264 0.0133415 0)
(3.0258 0.0212248 0)
(2.97564 0.0352241 0)
(2.88427 0.0385165 3.75663e-20)
(2.86458 0.0482282 0)
(2.73356 0.0429953 -2.47348e-20)
(0.0291638 0.327152 3.26843e-23)
(0.11971 0.162092 1.44888e-21)
(0.2967 -0.187531 0)
(0.546784 -0.570767 -1.56208e-21)
(0.81538 -0.890366 0)
(1.06203 -1.09984 0)
(1.26847 -1.18942 -2.23832e-22)
(1.4397 -1.18484 8.54149e-22)
(1.57705 -1.11157 1.20944e-21)
(1.68505 -0.994116 9.91021e-22)
(1.76408 -0.853134 0)
(1.81695 -0.70313 0)
(1.84765 -0.555546 -1.56194e-21)
(1.86071 -0.417786 -3.26429e-21)
(1.85988 -0.292214 3.38129e-21)
(1.84748 -0.180038 0)
(1.82528 -0.0782497 3.53748e-21)
(1.78715 0.0195701 -1.55221e-21)
(1.73282 0.116748 0)
(1.6616 0.214858 3.58834e-21)
(1.57125 0.316312 1.56265e-21)
(1.47022 0.413109 -3.52585e-21)
(1.35914 0.498813 -1.51884e-21)
(1.24123 0.563547 0)
(1.10625 0.626321 3.34891e-21)
(0.957364 0.689494 3.28591e-21)
(0.802672 0.739591 0)
(0.641716 0.776356 3.18238e-21)
(0.474448 0.798844 0)
(0.304767 0.80678 3.13655e-21)
(0.129714 0.806277 1.35811e-21)
(-0.0578058 0.801162 0)
(-0.243219 0.782072 0)
(-0.429092 0.756746 0)
(-0.607549 0.726168 0)
(-0.780235 0.6971 0)
(-0.958223 0.676459 0)
(-1.1273 0.650752 3.65392e-21)
(-1.28929 0.621061 -5.42752e-21)
(-1.44349 0.597849 0)
(-1.5864 0.575589 0)
(-1.72266 0.546449 0)
(-1.85492 0.510206 -4.60129e-22)
(-1.9791 0.459317 3.89788e-21)
(-2.10589 0.407011 8.48969e-21)
(-2.23885 0.372196 -8.71333e-21)
(-2.36148 0.341539 -4.70191e-21)
(-2.46259 0.301924 4.31113e-21)
(-2.5603 0.271604 4.89517e-22)
(-2.64942 0.253553 4.94152e-21)
(-2.75106 0.252099 0)
(-2.84381 0.250073 5.02362e-21)
(-2.95479 0.259316 4.85076e-22)
(-3.07367 0.283424 0)
(-3.18996 0.305726 0)
(-3.30492 0.304354 -5.04118e-21)
(-3.40796 0.285398 0)
(-3.51735 0.266952 0)
(-3.62924 0.257242 5.44133e-21)
(-3.73935 0.25056 9.94147e-21)
(-3.83024 0.247694 -4.50995e-21)
(-3.89498 0.235763 0)
(-3.94033 0.212062 4.53535e-21)
(-3.96824 0.17982 0)
(-3.98921 0.147948 5.53941e-21)
(-4.00524 0.119525 4.6382e-21)
(-4.02156 0.0943684 -1.02647e-20)
(-4.03237 0.0714206 -5.59113e-21)
(-4.04413 0.0614341 0)
(-4.06028 0.0603271 1.0354e-20)
(-4.07673 0.0620136 0)
(-4.0967 0.0683982 1.51285e-20)
(-4.12371 0.0810928 1.03276e-20)
(-4.14837 0.0954899 1.02999e-20)
(-4.1788 0.117035 -1.02543e-20)
(-4.20784 0.141697 1.48838e-20)
(-4.2432 0.163566 0)
(-4.28666 0.180158 0)
(-4.31675 0.17557 -9.77292e-21)
(-4.33686 0.154557 -1.40081e-20)
(-4.35876 0.132313 0)
(-4.38279 0.108164 4.22694e-21)
(-4.3869 0.071503 0)
(-4.38965 0.0260233 -1.24859e-20)
(-4.40832 -0.0111809 5.63955e-22)
(-4.43673 -0.0127733 -5.71492e-22)
(-4.45581 0.000295324 7.69032e-21)
(-4.4896 0.0270591 0)
(-4.51708 0.0467565 -7.15871e-21)
(-4.53754 0.051706 6.8151e-22)
(-4.54739 0.0501367 0)
(-4.54937 0.0411688 0)
(-4.53366 0.0143815 0)
(-4.50123 -0.0312221 5.44622e-21)
(-4.44786 -0.086025 0)
(-4.37747 -0.136876 0)
(-4.2933 -0.175162 0)
(-4.20875 -0.19209 0)
(-4.12053 -0.196284 0)
(-4.03649 -0.186902 5.41289e-21)
(-3.97376 -0.153642 0)
(-3.91038 -0.121953 4.22196e-21)
(-3.86225 -0.100019 3.83555e-21)
(-3.83404 -0.0712233 -3.42424e-21)
(-3.83958 -0.028664 0)
(-3.8426 -0.00772736 -2.59797e-21)
(-3.84682 -0.0145037 0)
(-3.82135 -0.0349982 -1.92148e-21)
(-3.78668 -0.0523664 1.65378e-21)
(-3.72014 -0.0845999 5.43175e-21)
(-3.62286 -0.132535 0)
(-3.49831 -0.185577 3.94051e-21)
(-3.35713 -0.231698 1.7035e-21)
(-3.20612 -0.270715 0)
(-3.04242 -0.304203 9.98953e-22)
(-2.86845 -0.332655 1.63488e-22)
(-2.68473 -0.35596 1.52424e-21)
(-2.4952 -0.373719 0)
(-2.29957 -0.385934 1.75739e-21)
(-2.10253 -0.391897 2.30164e-21)
(-1.91529 -0.386901 7.9752e-21)
(-1.73164 -0.373206 0)
(-1.53326 -0.360655 0)
(-1.33087 -0.351562 0)
(-1.13277 -0.343187 4.34844e-21)
(-0.939415 -0.337433 0)
(-0.744158 -0.341904 0)
(-0.55513 -0.344714 -6.06977e-21)
(-0.378504 -0.334335 -6.33613e-21)
(-0.202085 -0.315017 0)
(-0.0353865 -0.288233 0)
(0.0862252 -0.244992 -1.38982e-20)
(0.170591 -0.19707 0)
(0.261649 -0.170786 1.43753e-20)
(0.376548 -0.161885 1.37679e-20)
(0.482858 -0.15383 0)
(0.594951 -0.154892 0)
(0.721833 -0.167196 -1.3402e-20)
(0.858752 -0.180882 -5.74847e-22)
(0.988793 -0.188622 -5.29026e-22)
(1.11992 -0.193302 0)
(1.24795 -0.195758 -2.64813e-20)
(1.37676 -0.198643 0)
(1.50027 -0.197518 0)
(1.6291 -0.196061 0)
(1.76777 -0.198017 1.38105e-20)
(1.90933 -0.200102 0)
(2.05244 -0.200243 -2.75838e-20)
(2.19389 -0.197848 -1.43963e-20)
(2.33545 -0.1942 0)
(2.47473 -0.187789 -1.48694e-20)
(2.61059 -0.176911 0)
(2.73765 -0.161968 0)
(2.85284 -0.145738 -4.559e-20)
(2.94817 -0.124913 3.0313e-20)
(3.03494 -0.105206 0)
(3.12095 -0.0938414 3.00153e-20)
(3.2059 -0.087723 -1.51577e-20)
(3.28423 -0.0814381 0)
(3.35209 -0.0719319 0)
(3.40702 -0.059625 0)
(3.4506 -0.0471641 -4.19406e-20)
(3.49031 -0.0376834 0)
(3.53205 -0.0334854 -1.37231e-20)
(3.57394 -0.0318293 0)
(3.6106 -0.029352 0)
(3.64173 -0.0254945 0)
(3.66606 -0.0203757 0)
(3.68296 -0.0117257 0)
(3.68996 0.00015987 0)
(3.68381 0.0131723 -2.58514e-20)
(3.66321 0.0242045 0)
(3.63701 0.0323494 -1.29934e-20)
(3.59906 0.0385974 3.81854e-20)
(3.55666 0.0481057 0)
(3.49388 0.0616465 0)
(3.43296 0.0760972 -2.45714e-20)
(3.34926 0.0821972 -2.49094e-20)
(3.31205 0.0896076 2.42404e-20)
(3.21519 0.102609 2.47203e-20)
(0.0496536 0.0665434 -2.28017e-21)
(0.252222 -0.32868 -2.32702e-21)
(0.540058 -0.848871 -1.70362e-21)
(0.826696 -1.23923 -1.0665e-21)
(1.06991 -1.46783 0)
(1.24982 -1.54437 2.33474e-21)
(1.36517 -1.4938 -1.53348e-21)
(1.43904 -1.372 0)
(1.48602 -1.20891 -1.20953e-21)
(1.51297 -1.02623 0)
(1.52807 -0.840462 3.40219e-21)
(1.53311 -0.660022 0)
(1.5277 -0.489671 1.56306e-21)
(1.50993 -0.334004 3.26672e-21)
(1.47942 -0.195236 -3.38394e-21)
(1.4408 -0.0731781 0)
(1.39422 0.0365063 -3.54054e-21)
(1.33263 0.150665 0)
(1.25781 0.27174 0)
(1.16913 0.394579 -3.59042e-21)
(1.07104 0.512453 0)
(0.966856 0.616829 -5.05673e-22)
(0.855744 0.707984 0)
(0.734214 0.795311 0)
(0.603386 0.879827 5.18486e-22)
(0.469726 0.947937 -3.28299e-21)
(0.33236 0.998959 -3.75033e-21)
(0.192495 1.03558 -3.17842e-21)
(0.0501018 1.05857 0)
(-0.101015 1.075 -6.78203e-21)
(-0.260325 1.09111 0)
(-0.421596 1.09178 -3.66945e-21)
(-0.583487 1.07593 0)
(-0.749341 1.05319 0)
(-0.912943 1.02093 3.83571e-21)
(-1.07915 0.993576 0)
(-1.23956 0.96023 -4.0193e-21)
(-1.39055 0.917708 4.78755e-22)
(-1.54039 0.883025 8.0073e-21)
(-1.6847 0.852876 -8.74022e-21)
(-1.82152 0.823417 0)
(-1.94831 0.781005 0)
(-2.06829 0.728013 -5.2722e-21)
(-2.18606 0.670187 0)
(-2.3148 0.627462 -4.47558e-21)
(-2.43352 0.576379 4.59216e-21)
(-2.5403 0.518623 4.70084e-21)
(-2.64076 0.464618 0)
(-2.74489 0.435388 -4.87745e-21)
(-2.84914 0.418423 -4.94151e-21)
(-2.97525 0.427133 1.11241e-20)
(-3.10391 0.443411 -5.02345e-21)
(-3.23206 0.449867 -5.04398e-21)
(-3.35199 0.452912 0)
(-3.46391 0.462257 0)
(-3.55925 0.451473 5.04099e-21)
(-3.65649 0.438459 0)
(-3.75887 0.425363 0)
(-3.84942 0.398853 -9.96311e-21)
(-3.92262 0.363113 -9.94251e-21)
(-3.978 0.329904 0)
(-4.0169 0.294251 0)
(-4.04527 0.255193 0)
(-4.06848 0.217047 0)
(-4.08867 0.183015 -1.01422e-20)
(-4.1046 0.153344 1.12181e-20)
(-4.11626 0.122623 1.02695e-20)
(-4.12597 0.0986185 2.15833e-20)
(-4.13701 0.0884382 0)
(-4.15089 0.087124 9.06439e-22)
(-4.16479 0.0908448 0)
(-4.17601 0.098581 -1.03508e-20)
(-4.18386 0.108387 8.82556e-22)
(-4.18732 0.11975 -1.03066e-20)
(-4.19573 0.140942 1.02614e-20)
(-4.19794 0.164361 8.77025e-22)
(-4.20285 0.185019 0)
(-4.20722 0.198988 1.07951e-20)