/*--------------------------------*- C++ -*----------------------------------*\
  =========                 |
  \\      /  F ield         | OpenFOAM: The Open Source CFD Toolbox
   \\    /   O peration     | Website:  https://openfoam.org
    \\  /    A nd           | Version:  6
     \\/     M anipulation  |
\*---------------------------------------------------------------------------*/
FoamFile
{
    version     2.0;
    format      ascii;
    class       volScalarField;
    location    "0.15";
    object      nut;
}
// * * * * * * * * * * * * * * * * * * * * * * * * * * * * * * * * * * * * * //

dimensions      [0 2 -1 0 0 0 0];

internalField   nonuniform List<scalar> 
12225
(
1.37397e-08
1.64357e-09
0
0
0
0
0
0
0
0
0
0
0
0
0
0
0
0
2.7386e-09
3.67487e-10
0
0
0
0
0
0
0
0
0
0
0
0
0
0
0
0
1.81741e-09
1.7844e-10
0
0
0
0
0
0
0
0
0
0
0
0
0
0
0
0
0
1.04608e-08
4.47922e-09
5.62438e-09
4.22745e-09
2.79517e-09
7.30349e-10
0
0
0
0
0
0
0
0
0
0
0
0
0
0
0
0
0
0
0
0
0
0
0
0
0
0
0
0
1.36222e-08
5.07606e-08
3.82249e-08
0
0
0
0
0
0
0
0
0
0
0
0
0
0
0
0
0
2.39544e-08
0
0
0
0
0
0
0
0
1.60689e-07
1.61719e-07
0
0
0
0
0
0
0
0
1.20166e-08
1.86511e-07
1.52386e-07
1.75647e-07
2.09661e-07
1.69245e-07
1.66093e-07
2.55112e-07
1.86604e-07
0
0
0
0
0
0
0
0
0
3.34779e-07
8.13405e-07
4.93062e-07
2.14207e-07
2.03976e-07
2.263e-07
2.18039e-07
2.3807e-07
1.25051e-07
0
0
0
0
0
0
0
0
0
1.48835e-06
2.36744e-06
1.54617e-06
3.1382e-07
0
0
0
2.5401e-08
0
0
0
0
0
0
0
0
2.61619e-07
0
0
4.33186e-06
6.03633e-06
2.13773e-06
0
0
0
0
0
0
0
0
0
0
0
0
1.4273e-07
0
0
4.35855e-06
2.04301e-06
0
0
0
0
0
0
0
0
0
0
0
0
0
0
0
3.24267e-06
5.91154e-07
0
0
0
0
0
2.59526e-08
1.98407e-07
2.42038e-07
0
0
0
0
0
0
5.57506e-07
1.59833e-06
3.90505e-06
0
0
0
0
0
0
0
0
0
0
4.78276e-07
3.55391e-07
0
0
0
4.89282e-07
5.67805e-07
9.27355e-07
0
0
0
0
0
0
0
0
0
0
2.95247e-06
2.57594e-06
1.88461e-06
1.26107e-06
6.38888e-07
4.43585e-07
2.93031e-07
5.96717e-08
0
0
0
0
0
0
0
0
0
0
2.23173e-06
2.14215e-06
1.6004e-06
1.4383e-06
1.3086e-06
5.24381e-07
9.00036e-07
1.26407e-06
6.00663e-07
0
0
0
0
0
0
0
0
0
0
0
0
0
0
5.20522e-08
7.22104e-08
4.93382e-07
8.47273e-07
2.39525e-07
0
0
0
0
0
0
0
0
0
0
0
0
0
0
0
0
0
0
0
0
0
0
0
0
0
0
0
0
0
0
0
0
1.69114e-07
2.87608e-07
0
0
0
1.59187e-07
1.2397e-06
1.23243e-06
8.46293e-07
3.74137e-07
0
0
0
0
0
0
0
2.67481e-07
7.78211e-07
5.93103e-07
2.09363e-07
0
0
0
0
0
0
0
0
0
5.93745e-07
8.84097e-07
2.58742e-07
0
0
0
0
2.04114e-07
0
0
0
4.0687e-09
4.73651e-07
2.13665e-06
2.5031e-06
1.72981e-06
9.88749e-07
3.59368e-07
5.1539e-08
0
0
0
0
0
0
0
0
0
0
0
1.84056e-07
3.99675e-06
6.35148e-06
4.43416e-06
2.79694e-06
1.45897e-06
7.30907e-07
3.45438e-07
0
0
0
0
8.18883e-07
2.76472e-07
0
0
2.48364e-07
1.80091e-07
0
0
3.01364e-07
3.9553e-06
3.19117e-06
1.396e-06
3.23588e-07
0
0
0
0
0
0
0
0
0
1.23615e-07
0
0
0
0
8.47634e-06
7.81413e-06
3.89263e-06
1.2888e-06
1.67562e-07
0
0
0
0
0
0
0
0
0
3.88923e-07
1.76219e-06
5.72308e-07
0
0
0
0
0
2.90992e-08
7.47994e-08
5.9194e-08
5.46115e-08
0
0
0
3.05196e-09
1.48402e-09
0
0
0
0
0
0
0
0
0
0
0
0
0
3.26679e-09
2.68306e-10
5.75378e-10
2.20733e-10
0
0
0
0
0
0
0
0
0
0
0
0
0
0
2.82405e-09
7.90742e-10
1.10333e-09
2.84754e-10
0
0
0
0
0
0
0
0
0
0
0
0
0
0
7.40781e-09
5.43455e-09
4.85024e-09
1.04119e-09
0
0
0
0
0
0
0
0
0
0
0
0
0
0
0
1.99316e-06
1.48586e-05
1.84824e-05
1.31361e-05
6.26033e-06
1.19504e-06
0
0
0
0
0
3.12487e-07
6.16807e-07
3.44523e-07
0
0
0
0
0
0
0
0
0
0
5.49146e-07
2.78075e-06
3.10205e-06
2.20635e-06
1.48849e-06
1.39249e-06
1.82534e-06
2.60081e-06
3.50544e-06
4.28623e-06
4.5538e-06
3.55391e-06
8.30128e-07
0
0
0
2.38293e-07
8.3471e-07
1.07637e-06
1.14644e-06
1.13211e-06
1.06771e-06
9.55843e-07
8.07911e-07
6.44361e-07
4.70339e-07
2.92317e-07
1.20581e-07
0
0
0
0
0
0
0
0
0
0
0
0
0
0
0
0
0
0
0
0
0
0
0
0
0
0
9.70356e-07
1.94668e-06
1.47222e-06
1.19988e-06
6.51198e-07
1.92778e-07
7.02108e-07
8.62313e-07
6.3147e-07
7.13221e-06
3.91886e-05
9.15499e-05
9.13167e-05
4.24464e-05
1.49677e-05
4.23503e-06
9.44096e-07
2.93037e-07
4.65514e-07
7.54488e-07
9.85775e-07
1.08609e-06
1.06729e-06
9.4524e-07
7.68583e-07
5.53245e-07
3.37478e-07
1.19318e-07
0
0
0
0
0
0
0
0
0
0
0
0
0
0
0
0
0
0
0
0
0
0
0
0
1.28051e-06
2.04268e-06
2.12892e-05
9.59255e-05
9.91622e-05
5.87682e-05
1.30375e-05
3.72027e-06
1.80633e-06
1.13063e-06
6.78705e-07
3.25506e-07
4.94767e-08
0
0
0
0
0
0
0
0
0
0
0
0
0
0
0
0
0
0
0
0
0
0
0
0
0
0
0
0
0
0
0
0
0
0
0
3.26098e-07
0
7.47811e-09
2.21841e-06
3.78043e-06
4.17184e-06
3.607e-06
2.13311e-06
9.42565e-07
9.29382e-08
0
0
0
0
0
0
0
0
0
0
0
0
0
0
0
1.05246e-06
2.89368e-06
3.71942e-06
3.51442e-06
2.44769e-06
1.20013e-06
6.9017e-07
1.16374e-06
2.08999e-06
2.57157e-06
1.59599e-06
0
0
0
0
0
0
0
0
0
0
0
1.15691e-07
3.18578e-07
3.66679e-07
3.28136e-07
2.40108e-07
1.16515e-07
0
0
0
0
0
0
0
0
0
0
1.04002e-07
2.24761e-07
0
0
0
0
0
0
0
0
0
0
0
0
0
0
0
1.9412e-06
3.45136e-06
2.1827e-06
1.22019e-06
5.84781e-07
2.43082e-07
1.1188e-06
1.66944e-06
5.76973e-06
1.9528e-05
3.78711e-05
4.14301e-05
2.87747e-05
1.92875e-05
1.27388e-05
7.70185e-06
4.23035e-06
2.28833e-06
1.53037e-06
1.29166e-06
1.23846e-06
1.17174e-06
1.05759e-06
8.93704e-07
7.07857e-07
5.04725e-07
3.03574e-07
1.0287e-07
0
0
0
0
0
0
0
0
0
0
0
0
0
0
0
0
0
0
0
7.20509e-07
1.5619e-06
0
0
0
2.6972e-06
1.02471e-05
2.36846e-05
4.72523e-05
5.93858e-05
4.80865e-05
1.41134e-05
4.35346e-06
2.34237e-06
1.56785e-06
9.59376e-07
4.41881e-07
1.3093e-08
0
0
0
0
0
0
0
0
0
0
0
0
0
0
0
0
0
0
0
0
0
0
0
0
0
0
0
0
0
0
0
0
0
0
0
9.27358e-08
4.69298e-08
0
0
9.79208e-08
7.29673e-07
9.21648e-07
4.56508e-07
0
2.25666e-07
4.78628e-07
0
0
0
0
0
0
0
0
0
0
0
0
0
6.89365e-07
2.21091e-06
2.88033e-06
3.08037e-06
3.42256e-06
3.77468e-06
3.74887e-06
3.31067e-06
2.60671e-06
1.59482e-06
1.69574e-07
0
0
0
0
0
0
0
0
0
0
0
0
0
0
0
0
0
0
0
0
0
0
0
1.75315e-07
1.19431e-06
1.79441e-06
2.18221e-06
2.90764e-06
3.86086e-06
4.59079e-06
4.81226e-06
4.39114e-06
3.40506e-06
2.41936e-06
1.93373e-06
5.97245e-07
0
0
0
0
0
0
0
0
0
0
0
0
4.99367e-07
4.35833e-06
6.01421e-06
7.45531e-06
8.22197e-06
9.23504e-06
1.42237e-05
1.6044e-05
1.12611e-05
8.0382e-06
8.54704e-06
8.51464e-06
7.84402e-06
6.87783e-06
5.72728e-06
4.58489e-06
3.63748e-06
2.92336e-06
2.42567e-06
1.991e-06
1.57691e-06
1.16806e-06
7.90676e-07
4.40362e-07
1.24608e-07
0
0
0
0
0
0
0
0
0
0
0
0
0
0
0
0
0
0
0
3.53102e-06
6.64089e-06
0
0
0
8.97723e-06
1.03468e-05
2.34681e-05
2.90774e-05
2.90461e-05
2.42336e-05
1.43151e-05
8.11718e-06
6.53543e-06
4.62638e-06
2.699e-06
1.08433e-06
0
0
0
0
0
0
0
0
0
0
0
0
0
0
0
0
0
0
0
0
0
0
0
0
0
0
0
0
0
0
0
0
0
0
0
0
0
0
0
0
0
0
0
0
9.49257e-07
1.82824e-06
0
0
0
0
0
0
0
0
0
0
3.53575e-07
1.67223e-06
1.63374e-06
1.27748e-06
1.73767e-06
2.91422e-06
3.87802e-06
5.18423e-06
6.89225e-06
8.25507e-06
9.06023e-06
9.67886e-06
1.02689e-05
9.41648e-06
6.93449e-06
4.17379e-06
1.86002e-06
1.5856e-07
0
0
0
0
0
0
0
0
0
0
0
0
0
0
0
6.64129e-08
3.4493e-07
1.68884e-07
2.63003e-07
1.22215e-06
2.51911e-06
3.6293e-06
4.59021e-06
5.63132e-06
6.20604e-06
5.80481e-06
5.18799e-06
4.9937e-06
4.65159e-06
3.27594e-06
1.11865e-06
0
0
0
0
0
0
0
0
0
0
0
0
0
0
1.48235e-06
8.56907e-06
1.16805e-05
0
3.68985e-06
6.95943e-06
8.53002e-06
6.04165e-06
1.4241e-06
2.08358e-07
2.00517e-06
2.84011e-06
3.12836e-06
2.81506e-06
2.39725e-06
2.01532e-06
1.76973e-06
1.57283e-06
1.42933e-06
1.34867e-06
1.3307e-06
1.26964e-06
9.6752e-07
0
0
0
0
0
0
0
0
0
0
0
0
0
0
0
0
0
0
0
0
9.74098e-07
6.39019e-06
1.24744e-05
7.19061e-07
0
0
1.07513e-05
1.62163e-05
2.60169e-05
2.29902e-05
1.47264e-05
1.30938e-05
8.55735e-06
0
0
0
0
0
2.14178e-07
1.55062e-06
1.16067e-06
0
0
0
0
0
0
0
0
0
0
0
0
0
0
0
0
0
0
0
0
0
0
0
0
0
0
0
0
0
0
0
0
0
0
0
0
0
0
0
9.48728e-07
5.3485e-06
1.11024e-05
8.7041e-06
0
0
0
0
0
0
0
0
0
0
0
1.79975e-06
4.36015e-06
4.37209e-06
4.19453e-06
4.66982e-06
5.63995e-06
7.11212e-06
8.70087e-06
1.02505e-05
1.29891e-05
1.59462e-05
1.54127e-05
1.21037e-05
7.85149e-06
4.03068e-06
1.19078e-06
0
0
0
0
0
0
0
0
0
0
0
0
0
0
0
0
0
0
0
1.06096e-07
1.40429e-06
2.50582e-06
3.28833e-06
3.7438e-06
3.78356e-06
2.77971e-06
6.80337e-07
0
0
0
0
0
0
0
0
0
0
0
0
0
0
0
0
0
0
1.99518e-07
2.49185e-06
6.76553e-06
0
0
0
2.48824e-06
2.9545e-06
0
0
0
0
0
6.61456e-08
2.06865e-07
4.68195e-07
7.45537e-07
1.00152e-06
1.13821e-06
1.25792e-06
1.34731e-06
1.4204e-06
1.35e-06
6.74109e-07
0
0
4.97104e-07
0
0
0
0
0
0
0
0
0
0
0
0
0
0
0
0
0
1.06732e-06
8.59926e-06
1.99715e-05
0
0
0
1.35453e-05
2.49989e-05
2.77504e-05
1.7503e-05
1.00728e-05
4.43005e-06
0
0
0
0
0
0
0
3.37449e-07
1.09069e-06
8.15906e-07
0
0
0
0
0
0
0
0
0
0
0
0
0
0
0
0
0
0
0
0
0
0
0
0
0
0
0
0
0
0
0
0
0
0
0
0
0
1.03285e-06
5.75125e-06
9.70833e-06
9.83437e-06
4.88347e-06
0
0
0
0
0
0
5.10443e-07
1.94122e-06
8.40274e-07
0
0
0
4.77754e-07
2.76378e-06
1.87555e-06
2.08627e-06
2.39824e-06
2.19417e-06
6.35937e-06
1.79598e-05
2.07831e-05
1.83695e-05
1.44296e-05
1.01633e-05
5.91982e-06
2.16725e-06
0
0
0
0
0
0
0
0
0
0
6.54951e-07
7.21838e-07
9.58504e-08
0
0
0
0
0
0
0
0
1.77966e-07
6.78433e-07
8.83938e-07
5.52349e-07
0
0
0
0
0
0
0
0
0
0
0
0
0
0
2.214e-06
5.0323e-06
6.15831e-06
5.59845e-06
4.12251e-06
2.21183e-06
7.18146e-07
0
0
0
0
0
0
4.33838e-07
0
0
0
0
0
0
0
2.3091e-07
5.61754e-07
8.94154e-07
1.17966e-06
1.37874e-06
1.49037e-06
1.51758e-06
1.44332e-06
7.45093e-07
0
0
5.23383e-06
4.88069e-06
2.8729e-06
1.24174e-06
1.67349e-07
0
0
0
0
0
0
0
0
0
0
0
0
0
0
1.06818e-06
9.68231e-06
2.73298e-05
0
0
0
1.53432e-05
2.92726e-05
2.7762e-05
1.44283e-05
7.68006e-06
0
0
0
0
0
0
0
0
0
1.30544e-06
2.07114e-06
1.78408e-06
0
0
0
0
0
0
0
0
0
0
0
0
0
0
0
0
0
0
0
0
0
0
0
0
0
0
0
0
0
0
0
0
0
0
0
0
0
1.15972e-06
1.86542e-06
1.89251e-06
1.65617e-06
2.43897e-06
7.24345e-06
1.52435e-05
7.68433e-06
1.22456e-06
9.71402e-07
4.20682e-06
7.28949e-06
7.64272e-06
3.52142e-06
0
0
1.19522e-06
4.06366e-07
0
0
0
0
9.6821e-06
1.51228e-05
1.67232e-05
1.61044e-05
1.41748e-05
1.13994e-05
8.08654e-06
4.59068e-06
1.36295e-06
0
0
0
0
0
0
0
0
1.49369e-07
3.77434e-07
2.9257e-07
0
0
0
0
0
0
0
0
0
1.51195e-07
1.68635e-07
0
0
0
0
0
0
0
0
0
0
0
0
0
3.34258e-07
5.7022e-06
8.70488e-06
7.915e-06
5.33177e-06
2.39575e-06
5.76742e-07
0
0
0
0
1.5146e-06
1.13841e-06
0
0
4.91915e-07
8.24654e-07
0
0
0
0
0
6.03108e-09
2.15596e-07
4.37489e-07
7.47364e-07
1.08999e-06
1.4061e-06
1.57776e-06
1.54138e-06
1.24392e-06
1.8494e-07
0
0
0
1.22479e-05
8.51235e-06
5.29861e-06
2.92913e-06
1.3787e-06
4.92479e-07
0
0
0
0
0
0
0
0
0
0
0
0
0
1.45762e-06
1.10067e-05
2.23545e-05
0
0
0
1.67866e-05
3.04554e-05
2.50522e-05
1.27125e-05
3.8464e-06
0
0
0
0
0
0
0
0
6.11966e-07
3.19146e-06
5.12978e-06
6.16128e-06
5.1324e-06
1.62943e-06
0
0
0
0
0
0
0
0
0
0
0
0
0
0
0
0
0
0
0
0
0
0
0
0
0
0
0
0
0
0
0
0
8.71097e-08
0
0
0
0
0
8.50905e-07
3.45635e-06
9.4233e-06
1.99959e-05
2.68117e-05
2.59548e-05
2.08378e-05
1.34651e-05
6.3473e-06
5.21632e-06
3.04097e-06
0
0
0
0
0
0
0
1.3558e-06
7.08467e-06
1.14911e-05
1.43569e-05
1.57263e-05
1.5997e-05
1.53499e-05
1.35368e-05
1.04063e-05
6.43039e-06
2.65532e-06
1.47115e-07
0
0
0
0
0
0
0
0
0
0
0
0
0
0
0
0
0
0
0
0
2.72955e-07
9.09868e-07
1.81177e-06
2.77434e-06
3.51479e-06
4.10395e-06
4.36226e-06
4.37478e-06
4.63944e-06
4.63314e-06
2.85163e-06
3.65751e-07
0
0
1.39475e-06
8.97234e-07
0
0
0
0
4.51616e-07
0
0
8.20808e-06
1.10395e-05
1.00453e-05
5.66025e-06
3.61495e-06
3.86062e-06
3.52874e-06
2.16499e-06
1.16252e-06
2.83406e-06
1.92466e-06
9.70386e-07
6.62415e-07
5.4331e-07
6.12929e-07
8.67479e-07
1.23135e-06
1.59257e-06
1.66423e-06
1.2704e-06
0
0
0
0
0
6.55593e-06
4.35652e-06
1.67023e-06
0
0
0
0
0
0
0
0
0
0
0
0
0
0
0
0
1.87026e-06
1.34945e-05
3.04037e-06
0
0
0
1.78405e-05
3.0642e-05
2.18196e-05
1.14104e-05
0
0
0
0
0
0
0
0
0
1.58087e-06
6.83777e-06
1.05187e-05
1.22633e-05
1.1386e-05
7.26363e-06
1.92142e-06
0
0
0
0
0
0
0
0
0
0
0
0
0
0
0
0
0
0
0
0
0
0
0
0
0
0
0
0
0
2.33781e-07
1.03358e-06
2.25751e-06
3.6043e-06
1.86074e-06
0
0
0
0
0
0
2.70427e-06
8.7409e-06
1.0881e-05
1.0873e-05
9.56373e-06
5.79288e-06
0
0
0
0
0
0
0
0
0
0
4.06826e-06
7.71879e-06
1.04955e-05
1.21855e-05
1.30973e-05
1.36197e-05
1.37128e-05
1.26618e-05
9.87767e-06
5.85655e-06
2.49252e-06
3.17485e-07
0
0
0
0
0
0
0
0
0
0
0
0
0
0
0
0
0
0
9.79403e-08
8.8002e-07
1.76687e-06
2.56033e-06
3.06675e-06
3.5313e-06
4.28021e-06
4.81574e-06
5.0333e-06
5.1569e-06
4.8218e-06
2.34595e-06
0
0
0
0
0
0
0
0
0
2.30016e-06
1.30282e-07
0
1.05051e-05
1.4758e-05
1.45918e-05
9.44296e-06
5.63172e-06
5.58321e-06
9.15233e-06
7.08827e-06
3.21611e-06
3.53176e-06
2.67854e-06
1.62215e-06
1.08452e-06
7.87101e-07
7.19555e-07
9.23229e-07
1.35272e-06
1.73424e-06
1.61064e-06
3.55604e-07
0
0
0
0
0
0
3.05736e-07
0
0
0
0
0
0
0
0
0
0
0
0
0
0
0
0
0
1.96424e-06
1.29346e-05
0
0
0
4.96334e-07
1.81083e-05
3.04513e-05
1.96498e-05
1.03456e-05
0
0
0
0
0
0
0
0
0
1.49552e-06
9.98049e-06
1.5637e-05
1.79102e-05
1.70389e-05
1.27184e-05
6.37199e-06
0
0
0
0
0
0
0
0
0
0
0
0
0
0
0
0
0
0
0
0
0
0
0
0
0
0
0
0
0
7.9617e-07
1.68289e-06
2.37764e-06
2.20871e-06
2.11223e-06
2.11763e-06
2.07922e-06
1.68673e-06
4.41288e-07
0
0
0
4.5514e-07
5.44837e-06
6.29586e-06
5.53754e-06
2.91151e-06
0
0
0
0
0
0
0
0
0
0
1.04205e-06
3.17565e-06
4.68788e-06
5.56498e-06
5.93514e-06
5.92011e-06
5.96881e-06
5.97014e-06
5.73589e-06
5.24926e-06
4.1969e-06
2.47965e-06
8.05699e-07
0
0
0
0
0
0
0
0
0
0
0
0
0
0
0
0
0
7.61043e-07
1.70085e-06
2.59033e-06
3.12246e-06
3.19666e-06
3.00349e-06
2.9253e-06
3.14781e-06
3.85803e-06
4.84875e-06
5.27181e-06
3.58893e-06
0
0
0
0
0
0
0
0
0
0
0
0
4.06278e-06
1.29307e-05
1.49976e-05
9.76337e-06
4.9885e-06
3.49353e-06
3.4025e-06
2.27476e-06
3.44927e-06
3.76097e-06
2.55837e-06
1.44249e-06
9.99508e-07
7.82973e-07
7.15339e-07
9.29922e-07
1.4423e-06
1.85108e-06
1.37178e-06
0
0
0
0
0
0
4.45892e-06
6.43811e-06
4.42158e-06
2.04683e-06
4.24207e-07
0
1.82426e-08
4.52949e-08
0
0
0
0
0
0
0
0
0
0
0
0
0
0
0
0
1.17207e-06
1.79255e-05
2.92915e-05
1.8069e-05
9.74224e-06
0
0
0
0
0
0
0
0
0
0
9.23942e-06
1.65804e-05
2.02311e-05
2.07301e-05
1.73496e-05
1.04812e-05
2.32732e-06
0
0
0
0
0
0
0
0
0
0
0
0
0
0
0
0
0
0
0
0
0
0
0
0
0
0
0
0
3.37531e-06
4.48909e-06
3.60509e-06
4.3044e-06
6.39445e-06
7.86277e-06
8.76178e-06
9.01634e-06
8.78735e-06
8.02655e-06
6.5564e-06
4.65984e-06
6.72179e-06
1.04173e-05
8.4819e-06
4.94091e-06
0
0
0
0
0
0
0
0
0
0
0
0
2.03088e-07
6.67634e-07
9.27607e-07
1.10439e-06
1.28938e-06
1.55371e-06
1.76051e-06
1.80859e-06
1.65415e-06
1.14984e-06
3.47479e-07
0
0
0
0
0
0
0
0
0
0
0
0
0
0
0
0
0
0
1.97114e-07
1.31558e-06
2.53252e-06
3.43007e-06
3.65268e-06
3.23328e-06
2.59703e-06
2.17377e-06
2.21e-06
2.5463e-06
2.87685e-06
2.86209e-06
1.31356e-06
0
0
0
0
0
0
0
0
0
0
0
0
8.15517e-06
1.33518e-05
9.99219e-06
4.00985e-06
6.88142e-07
0
1.8399e-06
4.21874e-06
3.89238e-06
2.09789e-06
8.78933e-07
6.01932e-07
5.53076e-07
5.77651e-07
8.80997e-07
1.50601e-06
1.92614e-06
8.51767e-07
0
0
0
0
0
3.18469e-06
1.43118e-05
1.74751e-05
1.22046e-05
6.41125e-06
2.5403e-06
6.90699e-07
5.6314e-07
8.99717e-07
4.05195e-07
0
0
0
0
0
0
0
0
0
0
0
0
0
0
0
1.64464e-06
1.75385e-05
2.75473e-05
1.70842e-05
9.96463e-06
0
0
0
0
0
0
0
0
0
0
6.16576e-06
1.46564e-05
1.97756e-05
2.25428e-05
2.09109e-05
1.37515e-05
4.57644e-06
0
0
0
0
0
0
0
0
0
0
0
0
0
0
0
0
0
0
0
0
0
0
0
0
0
0
0
0
1.73847e-05
9.3539e-06
1.18573e-05
1.46945e-05
1.75315e-05
1.97306e-05
2.13204e-05
2.25977e-05
2.37966e-05
2.51911e-05
2.76488e-05
3.42686e-05
3.95267e-05
2.31737e-05
9.23011e-06
1.63277e-06
0
0
0
0
0
0
0
0
0
0
0
0
1.34531e-07
3.0305e-07
3.08593e-07
3.41496e-07
4.42121e-07
5.79869e-07
6.08669e-07
4.8043e-07
1.96068e-07
0
0
0
0
0
0
0
0
0
0
0
0
0
0
9.13775e-07
1.28055e-06
0
0
0
0
0
0
4.66581e-07
2.20988e-06
3.19925e-06
3.29405e-06
2.84047e-06
2.21554e-06
1.68683e-06
1.40939e-06
1.3018e-06
1.10242e-06
5.67306e-07
0
0
0
0
0
0
0
0
0
0
0
0
3.21717e-06
1.06506e-05
1.00586e-05
3.94929e-06
0
0
2.27522e-06
5.15829e-06
3.83673e-06
1.40579e-06
1.73663e-07
1.11216e-07
2.32866e-07
3.51128e-07
7.65758e-07
1.52146e-06
1.97252e-06
1.19896e-07
0
0
0
0
0
3.78257e-06
1.39132e-05
1.85206e-05
1.43412e-05
8.27526e-06
3.41671e-06
4.93567e-07
2.45091e-07
9.57377e-07
8.05629e-07
0
0
0
0
0
0
0
0
0
0
0
0
0
0
0
2.00383e-06
1.69597e-05
2.56737e-05
1.62727e-05
1.0443e-05
4.67425e-06
7.27534e-08
0
0
0
0
0
0
0
0
2.63453e-06
1.20851e-05
1.84052e-05
2.32892e-05
2.33624e-05
1.57387e-05
6.1301e-06
0
0
0
0
0
0
0
0
0
0
0
0
0
0
0
0
0
0
0
0
0
0
0
0
0
0
0
0
1.07286e-05
1.89398e-05
1.7087e-05
1.68596e-05
1.74491e-05
1.7709e-05
1.81192e-05
1.94592e-05
2.39873e-05
3.54304e-05
4.97997e-05
3.93537e-05
2.14947e-05
1.0885e-05
5.09252e-06
1.35669e-06
0
0
0
0
0
0
0
0
0
0
0
0
1.22923e-06
1.33791e-06
1.19979e-06
1.0228e-06
8.33481e-07
6.33605e-07
4.02553e-07
1.68074e-07
0
0
0
0
0
0
0
0
0
0
0
0
0
1.82558e-06
5.87303e-06
6.75675e-06
0
0
0
0
0
0
0
0
8.99399e-07
2.61303e-06
3.24721e-06
3.10957e-06
2.64578e-06
1.95975e-06
1.25543e-06
8.51265e-07
6.40993e-07
3.38214e-07
0
0
0
0
0
0
0
0
0
0
0
0
0
7.47248e-06
9.85519e-06
4.31377e-06
0
0
1.70488e-06
5.76363e-06
3.30698e-06
6.24077e-07
0
0
0
1.36547e-07
6.30905e-07
1.49293e-06
1.95892e-06
0
0
0
0
0
0
0
7.65524e-06
1.58795e-05
1.54881e-05
1.03627e-05
4.54579e-06
0
0
6.61956e-07
6.16564e-07
0
0
0
0
0
0
0
0
0
0
0
0
0
0
0
2.21948e-06
1.61494e-05
2.32422e-05
1.5638e-05
1.04675e-05
9.21486e-06
9.95889e-06
1.02798e-05
1.76023e-06
0
0
0
0
0
0
0
9.68977e-06
1.70018e-05
2.36264e-05
2.47808e-05
1.61602e-05
6.94579e-06
1.32103e-06
0
0
0
0
0
0
0
0
0
0
0
0
0
0
0
0
0
0
0
0
0
0
0
0
0
0
0
9.39611e-06
1.52005e-05
1.58419e-05
1.56469e-05
1.55285e-05
1.69133e-05
2.34599e-05
3.13454e-05
2.69801e-05
1.94277e-05
1.35688e-05
8.71766e-06
4.81791e-06
1.87339e-06
0
0
0
0
0
0
0
0
0
0
0
0
0
1.44134e-06
2.16262e-06
2.03537e-06
1.67398e-06
1.33419e-06
1.03815e-06
7.63312e-07
5.03487e-07
2.87567e-07
1.09407e-07
0
0
0
0
0
0
0
0
0
0
3.29425e-07
3.47598e-06
9.98195e-06
5.3894e-06
0
0
0
0
0
0
0
0
0
0
1.96161e-06
2.73973e-06
2.80284e-06
2.75134e-06
2.41613e-06
1.54294e-06
7.01043e-07
4.29682e-07
3.84502e-07
1.81208e-07
0
0
0
0
0
0
0
0
0
0
0
0
4.41227e-06
9.05944e-06
4.80727e-06
0
0
0
3.27351e-06
2.0224e-06
0
0
0
0
0
4.84826e-07
1.39367e-06
1.84082e-06
0
0
0
0
0
0
0
1.43596e-06
1.36292e-05
1.88908e-05
1.56195e-05
6.17016e-06
0
0
2.66889e-07
1.01882e-07
0
0
0
0
0
0
0
0
0
0
0
0
0
0
0
1.85274e-06
1.51183e-05
2.12799e-05
1.45235e-05
9.38795e-06
1.16342e-05
1.68421e-05
2.01594e-05
1.44561e-05
0
0
0
0
0
0
0
7.60685e-06
1.5782e-05
2.40668e-05
2.53546e-05
1.50988e-05
7.2114e-06
2.83815e-06
0
0
0
0
0
0
0
0
0
0
0
0
0
0
0
0
0
0
0
0
0
0
0
0
0
0
0
2.00914e-06
3.02485e-06
7.09573e-06
1.97548e-05
3.05378e-05
5.3608e-05
5.94546e-05
4.6636e-05
3.35039e-05
2.42091e-05
1.69603e-05
1.0305e-05
4.84935e-06
1.15753e-06
0
0
0
0
0
0
0
0
0
0
0
1.36383e-06
1.14553e-06
1.87055e-06
2.43293e-06
2.48046e-06
2.1225e-06
1.6514e-06
1.23102e-06
8.86691e-07
6.20868e-07
4.50306e-07
3.45418e-07
2.31654e-07
2.90131e-08
0
0
0
0
0
0
0
6.11755e-07
3.42985e-06
6.69609e-06
0
0
0
0
0
0
0
0
0
0
0
0
1.1893e-06
1.83315e-06
1.45414e-06
1.18022e-06
1.09909e-06
6.96214e-07
0
0
0
2.10868e-08
0
0
0
0
0
0
0
0
0
0
0
0
1.99153e-06
7.27517e-06
5.3155e-06
0
0
0
0
5.16069e-07
0
0
0
0
0
3.22653e-07
1.18356e-06
1.63733e-06
0
0
0
0
0
0
0
0
9.80263e-06
2.20742e-05
2.22682e-05
0
0
0
2.04075e-07
0
0
0
0
0
0
0
0
0
0
0
0
0
0
0
0
1.0262e-08
1.37848e-05
1.94037e-05
1.29365e-05
7.18682e-06
1.17384e-05
2.00024e-05
2.62115e-05
2.53146e-05
8.67536e-06
0
0
0
0
0
0
5.54792e-06
1.48932e-05
2.49949e-05
2.50868e-05
1.28313e-05
7.31864e-06
4.41142e-06
1.36347e-06
0
0
0
0
0
0
0
0
0
0
0
0
0
0
0
0
0
0
0
0
0
0
0
0
0
0
5.50929e-07
5.45287e-07
5.1486e-07
9.10974e-06
2.20844e-05
2.90156e-05
3.1736e-05
3.50645e-05
3.90125e-05
3.88884e-05
3.26305e-05
2.24238e-05
1.27328e-05
6.3094e-06
2.23075e-06
0
0
0
0
0
0
0
2.39436e-07
2.08614e-06
4.35047e-06
5.18754e-06
3.73517e-06
2.59502e-06
2.48888e-06
2.58514e-06
2.42e-06
2.00582e-06
1.51932e-06
1.09563e-06
7.83168e-07
6.06158e-07
5.3435e-07
4.68419e-07
3.06848e-07
1.63296e-08
0
0
0
0
0
3.13985e-08
1.64702e-06
2.1014e-06
0
0
0
0
0
0
0
0
0
0
0
0
0
1.51972e-06
1.35947e-06
4.57427e-07
0
0
0
0
0
0
0
0
0
0
0
0
0
0
0
0
0
0
0
0
5.13627e-06
5.47891e-06
0
0
0
0
0
0
0
0
0
0
1.72499e-07
8.90516e-07
1.31724e-06
0
0
0
0
0
0
0
0
1.86627e-06
5.87607e-06
1.49669e-07
0
0
3.43886e-07
7.48651e-07
0
0
0
0
0
0
0
0
0
0
0
0
0
0
0
0
0
1.18866e-05
1.7804e-05
1.11405e-05
4.38309e-06
1.02469e-05
2.1147e-05
2.94478e-05
3.30222e-05
2.23283e-05
0
0
0
0
0
0
3.27306e-06
1.46171e-05
2.69306e-05
2.3932e-05
9.83003e-06
7.80637e-06
6.2054e-06
2.81791e-06
8.82894e-07
8.53419e-08
0
0
0
0
0
0
0
0
0
0
0
0
0
0
0
0
0
0
0
0
0
0
0
0
2.47413e-07
3.7319e-08
0
4.98564e-06
1.01062e-05
1.29173e-05
1.59076e-05
1.84108e-05
2.06631e-05
2.17203e-05
2.01692e-05
1.69661e-05
1.31816e-05
8.11546e-06
2.20362e-06
0
0
0
0
0
0
0
6.33469e-07
2.82846e-06
5.0557e-06
6.07005e-06
5.35808e-06
3.99391e-06
2.95411e-06
2.44584e-06
2.15587e-06
1.86537e-06
1.52011e-06
1.16622e-06
8.7065e-07
6.65457e-07
5.38526e-07
4.11694e-07
1.97629e-07
0
0
0
0
0
0
0
0
0
0
0
0
0
0
0
0
0
0
0
0
2.4997e-07
2.44818e-06
1.68258e-06
7.11339e-07
7.07761e-08
0
0
0
0
0
0
0
0
0
0
0
0
0
0
0
0
0
0
0
0
2.61571e-06
4.297e-06
0
0
0
0
0
0
0
6.61887e-09
9.04521e-09
0
2.37091e-08
5.48997e-07
9.61576e-07
0
0
0
0
0
0
0
0
0
0
2.63799e-07
0
0
0
2.04262e-06
0
0
0
0
0
0
0
0
0
0
0
4.84433e-07
0
0
0
0
0
8.76826e-06
1.54102e-05
8.65639e-06
7.8534e-07
7.5838e-06
2.12469e-05
3.06987e-05
3.72086e-05
3.38847e-05
1.38313e-05
0
0
0
0
0
7.72642e-07
1.46954e-05
2.8583e-05
2.0088e-05
6.35833e-06
8.87453e-06
7.95729e-06
4.09078e-06
1.69877e-06
5.79298e-07
1.38401e-07
0
0
0
0
0
0
0
0
0
0
0
0
0
0
0
0
0
0
0
0
0
0
0
8.12689e-08
0
0
3.68359e-06
5.98591e-06
6.54773e-06
8.10362e-06
8.72037e-06
8.31756e-06
7.5765e-06
6.36681e-06
5.19907e-06
4.36662e-06
3.00906e-06
4.08199e-07
0
0
0
0
0
0
0
0
1.9943e-06
4.06477e-06
5.1098e-06
4.65676e-06
3.69127e-06
2.80221e-06
2.18695e-06
1.7754e-06
1.48412e-06
1.21532e-06
9.34256e-07
6.54838e-07
4.18661e-07
2.38436e-07
7.17795e-08
0
0
0
0
0
0
0
0
0
0
0
0
0
0
0
0
0
0
0
0
0
3.43123e-06
1.81612e-06
7.01261e-07
2.3652e-07
2.44043e-08
0
0
0
0
0
0
0
0
0
0
0
0
0
0
0
3.03125e-08
0
0
0
0
0
2.56797e-06
0
0
0
0
0
0
0
2.51161e-08
3.02341e-08
0
0
2.21414e-07
6.38926e-07
0
0
0
0
0
0
0
0
0
0
1.37737e-06
0
0
0
3.45295e-06
0
0
0
0
0
0
0
0
0
0
0
1.06283e-06
6.52652e-07
0
0
0
0
4.86799e-06
1.25315e-05
5.84951e-06
0
4.09702e-06
2.06122e-05
3.18906e-05
4.03724e-05
4.23462e-05
3.07968e-05
6.08087e-06
0
0
0
0
0
1.57807e-05
2.87286e-05
1.23312e-05
4.20282e-06
1.09506e-05
9.58335e-06
5.07524e-06
2.35333e-06
9.70467e-07
3.61705e-07
1.19535e-07
0
0
0
0
0
0
0
0
0
0
0
0
0
0
0
0
0
0
0
0
0
0
0
0
0
7.62207e-07
1.52113e-06
1.37946e-06
2.81067e-06
3.39821e-06
2.88064e-06
2.63399e-06
3.03003e-06
3.58548e-06
3.62589e-06
2.42541e-06
0
0
0
0
0
0
0
0
1.43731e-06
2.49312e-06
3.23828e-06
3.48276e-06
3.09691e-06
2.3593e-06
1.76374e-06
1.4224e-06
1.18718e-06
9.74265e-07
7.99328e-07
6.29769e-07
4.2317e-07
2.11184e-07
2.6514e-08
0
0
0
0
0
0
0
0
0
0
0
0
0
0
0
0
0
0
0
0
0
2.92482e-06
1.49025e-06
5.94695e-07
2.75202e-07
1.44303e-07
7.42242e-08
2.30913e-08
0
0
0
0
0
0
0
0
0
0
0
0
1.63425e-07
2.19977e-07
2.96273e-07
2.00013e-07
0
0
0
0
6.54754e-07
0
0
0
0
0
0
0
0
0
0
0
0
2.33352e-07
0
0
0
0
0
0
0
0
0
3.87041e-07
1.95009e-06
0
0
0
1.37912e-06
6.79705e-07
0
0
0
0
0
0
0
0
0
0
9.92529e-07
1.18461e-06
0
0
0
0
0
9.06894e-06
2.71452e-06
0
0
1.80234e-05
3.2249e-05
4.26851e-05
4.74164e-05
4.31529e-05
2.44258e-05
0
0
0
2.7599e-06
0
1.74341e-05
2.44617e-05
1.26673e-06
5.19165e-06
1.37269e-05
1.07164e-05
5.69431e-06
2.74302e-06
1.22624e-06
5.2751e-07
2.33627e-07
8.9626e-08
4.19641e-09
0
0
0
0
0
0
0
0
0
0
0
0
0
0
0
0
0
0
0
0
0
0
0
4.07233e-07
2.56594e-07
0
0
5.01316e-07
2.23147e-06
3.62628e-06
3.75647e-06
2.9871e-06
1.70273e-06
3.50799e-07
0
0
0
9.46516e-07
2.51923e-06
3.72856e-06
4.37198e-06
4.34537e-06
4.02476e-06
3.69912e-06
3.46116e-06
3.01825e-06
2.15984e-06
1.16843e-06
5.55458e-07
4.11652e-07
4.3131e-07
4.22505e-07
3.84935e-07
3.42609e-07
2.81003e-07
1.78522e-07
7.25902e-08
0
0
0
0
0
0
0
1.8414e-07
2.42304e-07
0
0
0
0
0
0
0
0
0
0
1.27948e-08
1.07039e-08
7.92242e-07
5.73849e-07
3.43149e-07
2.10254e-07
1.31135e-07
8.26575e-08
6.02349e-08
5.62028e-08
7.45986e-08
1.12296e-07
0
0
0
0
0
0
0
0
0
1.35849e-07
3.75781e-07
4.10351e-07
6.44763e-07
0
0
0
0
0
0
0
0
0
0
0
0
0
0
0
0
0
0
0
0
0
0
0
0
0
0
0
2.1336e-06
2.1915e-06
0
0
0
0
2.61112e-06
0
0
0
0
0
0
0
0
0
0
5.09717e-07
1.46053e-06
0
0
0
0
0
5.2771e-06
0
0
0
1.29522e-05
2.98795e-05
4.22181e-05
4.7432e-05
4.58624e-05
3.61516e-05
9.33535e-06
7.46157e-07
2.49676e-05
2.62368e-05
4.23638e-06
1.8106e-05
1.25723e-05
0
9.6425e-06
1.63254e-05
1.10014e-05
5.76825e-06
2.81041e-06
1.30671e-06
6.18849e-07
3.22531e-07
1.68432e-07
8.7226e-08
4.31543e-08
0
0
0
0
0
0
0
0
0
0
0
0
0
0
0
0
0
0
0
0
0
0
1.12473e-06
2.17507e-06
6.64267e-07
8.33067e-07
1.0001e-06
9.65833e-07
9.97808e-07
1.02739e-06
1.11968e-06
1.45338e-06
2.2898e-06
3.82997e-06
6.34832e-06
9.36053e-06
1.24112e-05
1.3028e-05
7.60238e-06
3.50419e-06
2.06712e-06
1.75694e-06
1.76696e-06
1.6471e-06
1.34594e-06
1.1104e-06
7.10726e-07
1.59054e-07
0
0
2.08838e-08
4.17441e-08
7.01916e-08
1.07604e-07
1.41529e-07
1.72813e-07
1.98948e-07
2.09756e-07
2.10344e-07
2.17176e-07
2.4921e-07
3.33718e-07
5.40487e-07
1.05133e-06
2.13809e-06
2.59728e-06
9.68594e-07
0
0
0
5.51609e-07
8.268e-07
8.96677e-07
8.61748e-07
7.52899e-07
4.93844e-07
0
6.73377e-07
4.66439e-07
2.87725e-07
1.80991e-07
1.18752e-07
8.62123e-08
7.57751e-08
8.01078e-08
9.91428e-08
1.61462e-07
3.27641e-07
4.74931e-07
1.48733e-07
0
0
0
0
0
0
3.68035e-08
3.84251e-07
4.92332e-07
7.11534e-07
4.89766e-07
0
0
0
0
0
0
0
0
0
0
0
0
0
0
0
0
0
0
2.56747e-07
0
0
0
0
0
0
0
3.27368e-06
2.2324e-06
0
0
0
0
4.70673e-06
0
0
0
0
0
0
0
0
0
0
0
1.37044e-06
2.07623e-07
0
0
0
0
6.02992e-07
0
0
0
5.21859e-06
2.45549e-05
3.70412e-05
3.99592e-05
3.76277e-05
3.39505e-05
2.49614e-05
2.95176e-05
5.04237e-05
4.47072e-05
1.07553e-05
1.35696e-05
0
0
1.55942e-05
1.7684e-05
1.05818e-05
5.34931e-06
2.54764e-06
1.22148e-06
6.46996e-07
3.93186e-07
2.43842e-07
1.57863e-07
1.18217e-07
2.58623e-08
0
0
0
0
0
0
0
0
0
0
0
0
0
0
0
0
0
0
0
0
0
0
1.63722e-06
1.29361e-06
2.39578e-07
0
0
0
0
1.15189e-06
2.91321e-06
4.34918e-06
5.04527e-06
4.54042e-06
2.65571e-06
0
0
0
0
0
0
0
3.22531e-08
2.53701e-07
9.86547e-08
0
0
0
1.67478e-07
2.23899e-07
9.43585e-08
1.62282e-08
6.9711e-09
4.99667e-08
1.37842e-07
2.53089e-07
3.58212e-07
4.39053e-07
5.09472e-07
5.94888e-07
7.28528e-07
9.85487e-07
1.62369e-06
3.90178e-06
4.96672e-06
1.0416e-06
2.15336e-07
9.8789e-07
1.58804e-06
1.42087e-06
9.73837e-07
4.48642e-07
0
0
0
8.00567e-07
8.14166e-07
4.21949e-07
2.69984e-07
1.81476e-07
1.22294e-07
8.91407e-08
7.77295e-08
8.39348e-08
1.00513e-07
1.30622e-07
2.34292e-07
4.83472e-07
6.19867e-07
3.41549e-07
2.87653e-07
4.10243e-07
2.38118e-07
0
0
0
2.70821e-07
5.27011e-07
6.89051e-07
8.46354e-07
0
0
0
0
0
0
0
0
0
0
0
0
0
0
0
0
0
0
0
4.99977e-06
0
0
0
0
0
0
3.96054e-06
2.11344e-06
0
0
0
0
7.03934e-06
0
0
0
0
0
0
0
0
0
0
0
9.05451e-07
4.7954e-07
0
0
0
0
0
0
0
0
0
1.66878e-05
3.02799e-05
3.00218e-05
2.64821e-05
2.65722e-05
2.75679e-05
3.79228e-05
5.62313e-05
5.27089e-05
1.35291e-05
0
0
6.35313e-06
2.06435e-05
1.7317e-05
9.46711e-06
4.6631e-06
2.27568e-06
1.17231e-06
6.92371e-07
4.71918e-07
3.28924e-07
2.35306e-07
1.84512e-07
8.72609e-08
0
0
0
0
0
0
0
0
0
0
0
0
0
0
0
0
0
0
2.89816e-07
0
0
0
0
0
0
0
0
0
0
5.544e-07
2.10048e-06
1.79816e-06
4.48323e-07
0
0
0
0
0
0
0
0
0
0
8.56325e-08
0
0
0
0
3.41826e-08
4.61315e-07
4.40679e-07
2.10092e-07
8.47857e-08
4.11486e-08
6.50473e-08
1.51897e-07
2.72973e-07
3.92225e-07
4.97266e-07
5.93825e-07
6.91736e-07
8.24393e-07
1.278e-06
4.52768e-06
7.00678e-06
1.79825e-06
2.21626e-06
2.28865e-06
1.48188e-06
7.01361e-07
6.68108e-08
0
0
0
0
1.62999e-06
7.53288e-07
4.34819e-07
2.75082e-07
1.80298e-07
1.20216e-07
8.54408e-08
7.35781e-08
9.02701e-08
1.1577e-07
1.2497e-07
1.52383e-07
2.60936e-07
4.41431e-07
4.09301e-07
4.07544e-07
6.01283e-07
5.78956e-07
2.48356e-07
2.24101e-08
0
1.41741e-07
4.71537e-07
6.65894e-07
9.0229e-07
3.24686e-07
0
0
0
0
0
0
0
0
0
0
0
0
0
0
0
0
0
0
4.63246e-06
9.18053e-06
0
0
0
0
0
4.3112e-06
1.84527e-06
0
0
0
0
9.02597e-06
7.41651e-07
0
0
0
0
0
0
0
0
0
0
2.82174e-07
6.01146e-07
0
0
0
0
0
0
0
0
0
4.39706e-06
2.42427e-05
2.54175e-05
2.08954e-05
2.18554e-05
2.63217e-05
3.833e-05
5.63364e-05
5.42637e-05
0
0
0
1.75211e-05
2.3009e-05
1.51075e-05
7.97383e-06
3.96581e-06
1.9981e-06
1.10814e-06
7.28726e-07
5.48045e-07
4.20875e-07
3.25319e-07
2.57398e-07
1.40129e-07
0
0
0
0
0
0
0
0
0
0
0
0
0
0
0
0
0
0
4.08208e-06
3.88149e-06
6.83537e-06
6.67596e-06
3.34254e-06
1.29698e-06
0
0
0
0
0
0
6.28774e-07
0
0
0
0
0
0
0
0
0
0
0
2.00075e-07
5.18556e-07
1.50787e-07
0
0
0
0
3.87998e-07
7.92565e-07
6.86537e-07
4.03863e-07
2.36465e-07
1.43459e-07
1.15766e-07
1.47053e-07
2.0998e-07
2.77094e-07
3.34387e-07
3.79227e-07
4.76811e-07
1.23406e-06
5.25044e-06
7.55383e-06
2.42434e-06
2.13164e-06
1.11517e-06
4.52013e-07
3.26483e-07
3.1477e-07
2.37211e-07
1.86026e-07
4.03005e-07
1.262e-06
1.04142e-06
6.37274e-07
4.26922e-07
2.66663e-07
1.66575e-07
1.15878e-07
8.9994e-08
7.91982e-08
9.91845e-08
1.37838e-07
1.3926e-07
1.26231e-07
1.37906e-07
1.89967e-07
2.55883e-07
3.74715e-07
6.09143e-07
7.13383e-07
5.23233e-07
1.79904e-07
3.01741e-08
6.03057e-08
3.19758e-07
6.19339e-07
8.6845e-07
6.658e-07
0
0
0
0
0
0
0
0
0
0
0
0
0
0
0
0
0
0
2.00271e-06
1.27807e-05
0
0
0
0
0
4.37157e-06
1.42343e-06
0
0
0
0
7.57661e-06
2.43066e-06
0
0
0
0
0
0
0
0
0
0
0
4.24205e-07
0
0
0
0
0
0
0
0
0
0
1.23747e-05
2.5698e-05
2.25543e-05
2.21873e-05
2.72076e-05
3.97475e-05
5.88497e-05
4.69679e-05
0
0
1.07178e-05
2.43887e-05
2.16448e-05
1.24067e-05
6.12386e-06
2.95989e-06
1.55091e-06
9.5907e-07
7.22268e-07
6.02908e-07
5.04008e-07
4.14246e-07
3.35242e-07
2.00457e-07
2.44388e-08
0
2.18985e-07
0
0
0
0
0
0
0
0
0
0
0
0
0
0
0
1.75615e-06
0
7.99773e-07
2.73043e-07
0
0
0
0
0
0
0
0
0
0
0
0
0
0
0
0
1.61444e-06
1.34074e-06
0
3.12459e-08
8.15472e-07
8.9009e-07
4.39307e-07
9.8728e-08
0
0
0
0
3.1923e-07
5.54199e-07
4.92203e-07
3.49102e-07
2.45638e-07
1.62904e-07
1.14012e-07
1.02785e-07
1.16797e-07
1.49176e-07
2.20427e-07
4.96486e-07
1.5778e-06
3.91027e-06
7.57154e-07
3.84209e-07
0
0
6.61122e-07
1.76991e-06
2.16562e-06
1.90705e-06
1.50739e-06
1.29613e-06
1.07234e-06
6.69307e-07
5.22357e-07
3.88531e-07
2.51965e-07
1.59059e-07
1.19257e-07
1.06444e-07
9.70752e-08
1.05945e-07
1.44001e-07
1.50065e-07