/*--------------------------------*- C++ -*----------------------------------*\
  =========                 |
  \\      /  F ield         | OpenFOAM: The Open Source CFD Toolbox
   \\    /   O peration     | Website:  https://openfoam.org
    \\  /    A nd           | Version:  6
     \\/     M anipulation  |
\*---------------------------------------------------------------------------*/
FoamFile
{
    version     2.0;
    format      ascii;
    class       volScalarField;
    location    "0.15";
    object      p;
}
// * * * * * * * * * * * * * * * * * * * * * * * * * * * * * * * * * * * * * //

dimensions      [0 2 -2 0 0 0 0];

internalField   nonuniform List<scalar> 
12225
(
-5.84483
-5.2561
-3.50951
-2.38708
-1.86127
-1.6242
-1.64002
-1.88323
-2.24726
-2.62066
-2.95455
-3.26026
-3.56757
-3.90146
-4.23557
-4.56849
-4.89789
-5.16876
-7.03866
-5.4332
-3.52073
-2.35297
-1.81954
-1.60588
-1.64912
-1.90175
-2.25997
-2.6262
-2.95941
-3.27008
-3.58234
-3.91294
-4.24489
-4.5666
-4.89596
-5.23448
-8.50714
-5.54214
-3.41211
-2.2835
-1.79487
-1.60081
-1.65313
-1.90544
-2.25615
-2.61601
-2.94917
-3.26547
-3.58126
-3.90742
-4.23457
-4.55495
-4.88955
-5.24492
-9.89005
-5.54316
-3.24683
-2.13749
-1.69105
-1.54034
-1.62543
-1.89024
-2.24012
-2.59994
-2.94075
-3.26866
-3.59241
-3.91881
-4.24279
-4.55984
-4.88781
-5.2361
-10.8194
-5.49131
-3.03558
-1.96206
-1.55847
-1.46291
-1.59666
-1.88568
-2.24026
-2.59918
-2.9411
-3.27169
-3.59726
-3.91968
-4.23591
-4.54617
-4.86225
-5.18671
-11.2694
-5.1335
-2.68538
-1.71205
-1.39635
-1.36561
-1.53827
-1.84505
-2.20928
-2.57908
-2.93345
-3.27385
-3.60314
-3.92142
-4.23053
-4.5322
-4.83056
-5.12603
-10.3057
-4.46765
-2.14837
-1.34215
-1.14882
-1.21822
-1.46289
-1.80997
-2.19204
-2.56897
-2.9265
-3.26762
-3.59574
-3.91176
-4.21719
-4.51233
-4.79714
-5.06861
-6.70802
-3.37653
-1.47903
-0.902958
-0.864581
-1.0556
-1.38547
-1.77637
-2.17629
-2.56317
-2.93034
-3.27917
-3.60955
-3.92051
-4.21389
-4.49232
-4.75701
-5.00266
-7.4903
-2.1114
-0.605272
-0.366505
-0.52171
-0.839513
-1.25038
-1.68659
-2.11446
-2.52283
-2.9072
-3.26801
-3.60473
-3.9167
-4.20694
-4.47794
-4.72936
-4.95647
-4.60608
-0.252391
0.60405
0.365305
-0.0912033
-0.601951
-1.13767
-1.65001
-2.11972
-2.54591
-2.93307
-3.28823
-3.61496
-3.91517
-4.19307
-4.45162
-4.69027
-4.90534
0.476066
2.39264
1.99771
1.14298
0.369437
-0.340541
-0.99185
-1.56565
-2.07213
-2.52334
-2.92909
-3.29837
-3.63357
-3.93474
-4.20603
-4.45149
-4.6744
-4.87182
5.88583
5.20407
3.45368
1.95129
0.835874
-0.0902817
-0.865506
-1.50635
-2.05367
-2.52805
-2.94157
-3.30867
-3.63761
-3.93214
-4.19798
-4.44034
-4.66013
-4.85516
14.0531
8.25168
4.92172
2.72778
1.24959
0.122038
-0.763253
-1.46654
-2.05178
-2.54805
-2.9735
-3.34687
-3.67697
-3.96743
-4.22324
-4.45161
-4.65519
-4.83658
21.0374
11.7191
6.56955
3.59176
1.71052
0.357593
-0.669254
-1.47407
-2.12089
-2.63743
-3.05779
-3.41691
-3.73091
-4.00556
-4.24852
-4.46646
-4.66418
-4.83978
26.132
14.0896
7.67464
4.23543
1.97248
0.398978
-0.675389
-1.47001
-2.11772
-2.65046
-3.09023
-3.46429
-3.78585
-4.06032
-4.29694
-4.50396
-4.68775
-4.84977
25.1246
14.1591
7.95683
4.35081
2.00669
0.351257
-0.860335
-1.76416
-2.44531
-2.95999
-3.36465
-3.69951
-3.97884
-4.21119
-4.41024
-4.58737
-4.7472
-4.88927
14.3247
11.1511
6.79583
3.47526
1.1804
-0.331488
-1.39462
-2.19253
-2.79434
-3.25154
-3.62083
-3.93216
-4.18949
-4.39855
-4.57471
-4.73061
-4.86865
-4.99011
19.7383
8.71688
3.7442
0.976354
-0.6536
-1.69899
-2.49036
-3.10311
-3.54319
-3.86267
-4.12323
-4.34747
-4.5329
-4.68203
-4.806
-4.91334
-5.00543
-5.08098
-8.28266
-4.45041
-3.39127
-3.61553
-3.88497
-4.10821
-4.36779
-4.60863
-4.76384
-4.85572
-4.93644
-5.0185
-5.09029
-5.14995
-5.20447
-5.2563
-5.3033
-5.34346
-13.4423
-10.7003
-8.63636
-7.56796
-6.88457
-6.37655
-6.0961
-5.971
-5.88715
-5.82109
-5.78793
-5.77235
-5.74943
-5.71469
-5.67605
-5.63867
-5.60438
-5.57321
-23.5054
-15.2744
-11.909
-10.0944
-8.8739
-8.02524
-7.49844
-7.1453
-6.83205
-6.54604
-6.31955
-6.15068
-6.01975
-5.91885
-5.84591
-5.79353
-5.75258
-5.71748
-14.5884
-15.7314
-13.5922
-11.7476
-10.3101
-9.20906
-8.39545
-7.81639
-7.39296
-7.07353
-6.83468
-6.64852
-6.48961
-6.34759
-6.22015
-6.10479
-6.00095
-5.90863
-23.7653
-18.0415
-14.9065
-12.749
-11.1433
-9.97557
-9.13052
-8.49998
-7.99376
-7.56151
-7.19301
-6.88848
-6.64313
-6.44903
-6.29663
-6.17408
-6.07169
-5.98326
-25.2067
-18.8556
-15.5174
-13.3508
-11.7672
-10.5551
-9.57429
-8.80279
-8.21803
-7.76735
-7.40713
-7.11348
-6.87093
-6.66756
-6.49435
-6.34412
-6.21194
-6.09508
-22.4338
-18.8166
-15.7255
-13.6451
-12.1033
-10.8744
-9.89274
-9.13735
-8.54885
-8.05933
-7.63491
-7.26895
-6.9633
-6.71913
-6.52843
-6.37597
-6.24735
-6.13425
-23.5966
-18.5995
-15.6389
-13.7471
-12.3091
-11.0968
-10.0755
-9.26781
-8.64005
-8.13804
-7.72413
-7.37509
-7.07857
-6.83022
-6.62561
-6.45567
-6.31012
-6.1841
-22.6081
-17.6883
-15.4556
-13.7853
-12.4251
-11.224
-10.2024
-9.39861
-8.76769
-8.2485
-7.80911
-7.4345
-7.1162
-6.85202
-6.63908
-6.46818
-6.32621
-6.20403
-17.5133
-16.7764
-15.2935
-13.7096
-12.4332
-11.292
-10.2861
-9.46892
-8.81946
-8.28842
-7.84371
-7.46565
-7.14297
-6.87381
-6.65685
-6.48347
-6.34081
-6.2192
-12.3449
-15.8257
-15.1404
-13.7547
-12.5145
-11.3398
-10.3022
-9.48236
-8.84818
-8.33211
-7.89298
-7.51009
-7.17552
-6.89259
-6.66468
-6.48522
-6.34194
-6.22172
-10.7709
-15.4082
-15.0456
-13.6828
-12.4696
-11.3265
-10.3071
-9.49415
-8.86293
-8.34718
-7.90281
-7.50928
-7.16356
-6.87426
-6.64674
-6.47237
-6.33612
-6.22202
-7.91213
-7.92245
-7.93961
-7.95703
-7.97203
-7.98739
-8.00652
-8.02946
-8.05104
-8.06202
-8.0562
-8.04239
-8.04288
-8.06739
-8.09855
-8.11487
-8.11012
-8.0855
-8.04514
-7.9966
-7.94763
-7.9053
-7.87547
-7.86249
-7.86926
-7.89635
-7.94172
-8.00165
-8.0703
-8.14035
-8.20427
-8.25495
-8.28671
-8.29715
-8.28771
-8.26208
-8.22527
-8.18316
-8.14176
-8.1052
-8.07455
-8.04805
-8.02088
-7.98547
-7.93253
-7.85199
-7.73415
-7.57
-7.35106
-7.0693
-6.71682
-6.28574
-5.76962
-5.16639
-4.47837
-3.70896
-2.86773
-1.97417
-1.05348
-0.134658
0.755264
1.60183
2.40203
3.15761
3.87564
4.56734
5.2437
5.91095
6.56982
7.21277
7.82389
8.38658
8.88991
9.32776
9.70009
10.0296
10.2995
10.4536
10.5535
10.6954
10.8207
10.8407
10.8279
10.8547
10.8959
10.953
11.0266
11.0734
11.0968
10.9861
10.5858
9.96324
9.04847
7.68551
5.84029
3.56199
0.898873
-2.1537
-5.61456
-9.48006
-13.7056
-18.1747
-22.6917
-26.9858
-30.7404
-33.6342
-35.3971
-35.8609
-35.0341
-33.1116
-30.3854
-27.1702
-23.7429
-20.3008
-16.9653
-13.7969
-10.8181
-8.03121
-5.43154
-3.0144
-0.779144
1.26924
3.11672
4.73058
6.06116
7.17249
8.29359
9.18836
9.36702
8.95162
8.61648
8.83372
9.33197
9.88256
10.3833
10.8632
12.0045
7.04803
-7.96362
-26.6558
-43.0674
-55.2051
-62.6159
-65.59
-64.593
-60.0738
-52.3795
-41.9581
-29.6849
-16.898
-5.01125
4.99169
12.7267
18.2648
21.9409
24.1787
25.386
25.9034
25.9875
25.8131
25.497
25.1198
24.7305
24.3552
24.0071
23.6902
23.3994
23.1205
22.8296
22.4922
22.0632
21.5083
20.8232
20.0407
19.2052
18.3705
17.58
16.9285
16.5069
16.5674
-7.8619
-7.87661
-7.90156
-7.93026
-7.95796
-7.98391
-8.01067
-8.04297
-8.08561
-8.13474
-8.17132
-8.18202
-8.18485
-8.20076
-8.21846
-8.2203
-8.20132
-8.16239
-8.11051
-8.05559
-8.00508
-7.96422
-7.93677
-7.92484
-7.93111
-7.95786
-8.00401
-8.06538
-8.13602
-8.20903
-8.27672
-8.3312
-8.36607
-8.37766
-8.36591
-8.33469
-8.29073
-8.24212
-8.19667
-8.15982
-8.13319
-8.11514
-8.10115
-8.0836
-8.05113
-7.98977
-7.88763
-7.73623
-7.52566
-7.24648
-6.89397
-6.46166
-5.94027
-5.32651
-4.62474
-3.84046
-2.97983
-2.0622
-1.12743
-0.213449
0.668495
1.5174
2.32358
3.0846
3.80883
4.50796
5.1931
5.8731
6.5501
7.21761
7.85478
8.43233
8.93624
9.37703
9.7594
10.0741
10.3296
10.5163
10.635
10.7211
10.7943
10.8387
10.8388
10.8364
10.8437
10.8879
10.9685
11.0303
11.1937
11.3044
10.9681
10.1264
8.95269
7.37973
5.37869
2.99659
0.248681
-2.88069
-6.42048
-10.3673
-14.6774
-19.2273
-23.8148
-28.1626
-31.9411
-34.8062
-36.4803
-36.8375
-35.9154
-33.8893
-31.0534
-27.7383
-24.2277
-20.7229
-17.3412
-14.1388
-11.1331
-8.32278
-5.70097
-3.26345
-1.01177
1.05058
2.91832
4.56063
5.92888
7.06972
8.16999
8.99856
9.08693
8.69604
8.51243
8.75753
9.23549
9.6634
10.2251
10.3664
8.66312
0.412947
-15.2785
-32.2311
-46.9629
-57.8972
-64.5932
-67.1586
-65.9649
-61.3786
-53.6933
-43.2786
-30.9206
-17.9355
-5.79569
4.43724
12.3441
17.9948
21.7397
24.0191
25.2505
25.7804
25.8691
25.6971
25.3851
25.0118
24.6247
24.2498
23.9015
23.5846
23.2943
23.0168
22.7294
22.398
21.9785
21.4321
20.7545
19.9758
19.1456
18.3042
17.5077
16.8029
16.2856
15.9133
-7.79531
-7.81697
-7.85477
-7.90193
-7.95402
-8.00812
-8.06148
-8.11189
-8.16068
-8.21155
-8.26324
-8.308
-8.34082
-8.36184
-8.36658
-8.34632
-8.30016
-8.24046
-8.18075
-8.12492
-8.07511
-8.03695
-8.0145
-8.00797
-8.01883
-8.04998
-8.10099
-8.16787
-8.24604
-8.32882
-8.40694
-8.47008
-8.50983
-8.52169
-8.50595
-8.46781
-8.41617
-8.36176
-8.31494
-8.28323
-8.26969
-8.27284
-8.2874
-8.30348
-8.30601
-8.27877
-8.20888
-8.08379
-7.89077
-7.62298
-7.27559
-6.83858
-6.30109
-5.66661
-4.94661
-4.13673
-3.24029
-2.29401
-1.34762
-0.42409
0.476407
1.3365
2.14212
2.90459
3.64123
4.36363
5.07981
5.79945
6.5214
7.22859
7.9
8.50695
9.02001
9.46645
9.88632
10.2312
10.4543
10.5963
10.7115
10.8012
10.8428
10.8514
10.8162
10.7474
10.7076
10.7193
10.7785
11.0016
11.4066
11.5038
10.897
9.70836
8.21258
6.43305
4.34322
1.9211
-0.862464
-4.03725
-7.64175
-11.68
-16.1063
-20.7958
-25.541
-30.0468
-33.9527
-36.8863
-38.5529
-38.8207
-37.7394
-35.5096
-32.4482
-28.9156
-25.2239
-21.5825
-18.102
-14.8269
-11.7637
-8.90352
-6.23651
-3.75874
-1.47154
0.626582
2.53606
4.22121
5.64062
6.82597
7.8694
8.53123
8.37107
7.94476
7.98215
8.51367
9.21217
9.57514
9.35638
7.39814
1.16942
-10.5122
-25.3348
-39.8998
-52.6551
-62.175
-67.9902
-70.0163
-68.5237
-63.8382
-56.2057
-45.8584
-33.4004
-20.0773
-7.46557
3.21799
11.4721
17.3616
21.2654
23.6555
24.9609
25.5312
25.637
25.4738
25.1702
24.8045
24.422
24.0485
23.6997
23.3818
23.0903
22.8124
22.5282
22.2054
21.8007
21.2707
20.6085
19.8396
19.0154
18.1691
17.3499
16.5596
15.8554
15.0247
-7.79048
-7.81604
-7.86346
-7.92505
-7.99582
-8.07145
-8.14637
-8.21576
-8.27843
-8.33452
-8.38317
-8.42305
-8.45174
-8.46451
-8.4541
-8.41736
-8.36322
-8.30505
-8.24603
-8.18527
-8.13104
-8.09254
-8.07398
-8.07639
-8.09925
-8.14382
-8.211
-8.29963
-8.40567
-8.51864
-8.62322
-8.7034
-8.74791
-8.75373
-8.72524
-8.67226
-8.60797
-8.54641
-8.5005
-8.48078
-8.49195
-8.53002
-8.58661
-8.65131
-8.70845
-8.73949
-8.7229
-8.63608
-8.47062
-8.22872
-7.90396
-7.47946
-6.94732
-6.32034
-5.59229
-4.74393
-3.7997
-2.81072
-1.81866
-0.84613
0.0825027
0.944187
1.75284
2.53932
3.31914
4.09051
4.86356
5.65657
6.45996
7.24244
7.98221
8.65499
9.2172
9.67171
10.0658
10.4175
10.7057
10.8929
10.9673
10.9816
10.9777
10.9202
10.7774
10.5916
10.4132
10.2795
10.299
10.6801
11.1218
10.9235
9.93792
8.54303
6.9395
5.11674
3.03866
0.641798
-2.13066
-5.33665
-9.03125
-13.2345
-17.9031
-22.9056
-28.0035
-32.8502
-37.0276
-40.1207
-41.8119
-41.9603
-40.6289
-38.0586
-34.616
-30.7194
-26.7319
-22.8754
-19.2444
-15.8606
-12.7125
-9.77889
-7.04495
-4.5052
-2.15802
-0.001577
1.95845
3.68909
5.15548
6.38147
7.32124
7.72767
7.22505
6.77941
7.13738
8.2266
9.18081
9.20315
7.35384
1.74597
-8.35467
-21.2727
-34.9413
-47.9908
-59.2683
-67.5662
-72.478
-73.8924
-72.0364
-67.2433
-59.7279
-49.5522
-37.051
-23.3256
-10.0748
1.25566
10.0276
16.2863
20.4488
23.0287
24.4705
25.1309
25.2909
25.1591
24.8748
24.5218
24.147
23.7772
23.4299
23.1121
22.8188
22.538
22.253
21.9361
21.5459
21.0358
20.3928
19.6402
18.8249
17.9742
17.1163
16.2305
15.316
14.1683
-7.86533
-7.88973
-7.93918
-8.00768
-8.08977
-8.17913
-8.26757
-8.34776
-8.41688
-8.47339
-8.51473
-8.53965
-8.54788
-8.53908
-8.51282
-8.46996
-8.41381
-8.34935
-8.28225
-8.2179
-8.16316
-8.12449
-8.10816
-8.11855
-8.15639
-8.22528
-8.32943
-8.47043
-8.63858
-8.81194
-8.96438
-9.07341
-9.12664
-9.12352
-9.07375
-8.99634
-8.91317
-8.84319
-8.79918
-8.79018
-8.82696
-8.91545
-9.04335
-9.18527
-9.31483
-9.40789
-9.44745
-9.4226
-9.33301
-9.18212
-8.94691
-8.59338
-8.11583
-7.5049
-6.73134
-5.80898
-4.79016
-3.72711
-2.66231
-1.62502
-0.646894
0.264701
1.15069
2.04906
2.94498
3.81356
4.68425
5.5887
6.50345
7.38442
8.21467
8.95824
9.56513
10.0649
10.4901
10.8207
11.0666
11.2462
11.3434
11.3397
11.2377
11.0296
10.7218
10.3214
9.82785
9.41345
9.39208
9.81789
10.053
9.53768
8.4488
7.09681
5.53471
3.75182
1.70435
-0.680078
-3.47513
-6.76941
-10.6463
-15.1551
-20.264
-25.8187
-31.5045
-36.8696
-41.4075
-44.6558
-46.2841
-46.1731
-44.4429
-41.3918
-37.434
-33.0542
-28.6758
-24.5365
-20.7084
-17.1842
-13.9305
-10.9102
-8.09805
-5.48332
-3.06149
-0.83506
1.18557
2.96773
4.46926
5.73041
6.55652
6.69889
5.89902
5.53918
6.27661
7.81509
8.90077
8.25013
3.89388
-5.29569
-17.5282
-30.649
-43.7516
-56.072
-66.2776
-73.4851
-77.4688
-78.232
-75.9977
-71.1038
-63.761
-53.8813
-41.4738
-27.4064
-13.468
-1.3752
8.04095
14.7777
19.2865
22.1239
23.7581
24.5586
24.8176
24.752
24.5092
24.1802
23.8181
23.4547
23.1108
22.7949
22.5016
22.2178
21.929
21.6123
21.2303
20.7366
20.1134
19.3804
18.576
17.7191
16.819
15.8379
14.7369
13.38
-7.96275
-7.98889
-8.04327
-8.12146
-8.21627
-8.31757
-8.41601
-8.50519
-8.58195
-8.64274
-8.6823
-8.69612
-8.68264
-8.64375
-8.58399
-8.50748
-8.4199
-8.33079
-8.24988
-8.17967
-8.11939
-8.07718
-8.06442
-8.08579
-8.14337
-8.24688
-8.40765
-8.62277
-8.86911
-9.11234
-9.3184
-9.46276
-9.53692
-9.54401
-9.49676
-9.41634
-9.32885
-9.26075
-9.23346
-9.25942
-9.34152
-9.47346
-9.63669
-9.81612
-10.0212
-10.2566
-10.4886
-10.6676
-10.7595
-10.7437
-10.6024
-10.3176
-9.87075
-9.23998
-8.42015
-7.43684
-6.33292
-5.1626
-3.96933
-2.7851
-1.64035
-0.528205
0.597176
1.74281
2.85102
3.9006
4.93185
5.95564
6.93377
7.82164
8.6162
9.32996
9.95136
10.4679
10.8783
11.1902
11.4237
11.5854
11.6561
11.6103
11.439
11.1316
10.6701
10.0002
9.17971
8.56708
8.51761
8.79345
8.70478
8.03938
6.99836
5.72272
4.21017
2.46349
0.420402
-1.99673
-4.88396
-8.3643
-12.5658
-17.5818
-23.3846
-29.7377
-36.1658
-42.0729
-46.8919
-50.1605
-51.5793
-51.1005
-48.9201
-45.3644
-40.8566
-35.9272
-31.0732
-26.5698
-22.4745
-18.7512
-15.3467
-12.2128
-9.31153
-6.62411
-4.13894
-1.85084
0.235434
2.07049
3.62925
4.92273
5.6515
5.61011
4.66244
4.47797
5.51356
7.21624
8.17989
6.33197
-0.747783
-12.457
-25.648
-38.8555
-51.8366
-63.6999
-72.9912
-79.1715
-82.2728
-82.4515
-79.9049
-74.935
-67.7836
-58.2911
-46.1452
-31.8921
-17.3349
-4.46527
5.65282
12.9357
17.8472
20.9811
22.84
23.8167
24.213
24.2484
24.0732
23.7853
23.4466
23.0962
22.7591
22.4466
22.1543
21.8684
21.5752
21.2551
20.8749
20.3914
19.7854
19.0724
18.2819
17.4196
16.475
15.4011
14.1524
12.633
-8.0059
-8.04105
-8.10814
-8.20073
-8.31123
-8.42636
-8.53576
-8.63565
-8.72587
-8.8031
-8.85748
-8.87689
-8.85403
-8.78915
-8.68737
-8.55786
-8.41436
-8.27576
-8.15543
-8.0553
-7.97125
-7.90916
-7.88792
-7.91589
-7.99208
-8.12834
-8.33714
-8.60383
-8.89627
-9.18251
-9.43449
-9.62819
-9.74877
-9.79778
-9.79064
-9.7507
-9.70744
-9.68977
-9.71666
-9.79529
-9.92918
-10.1339
-10.432
-10.8044
-11.1952
-11.5846
-11.9746
-12.3332
-12.6083
-12.7525
-12.731
-12.5242
-12.1183
-11.503
-10.6799
-9.66596
-8.48952
-7.17908
-5.7643
-4.29008
-2.79877
-1.29348
0.231822
1.73194
3.1434
4.45041
5.64191
6.67561
7.54625
8.31498
9.02431
9.65272
10.1786
10.6285
11.0272
11.3695
11.6392
11.824
11.908
11.8659
11.6756
11.3306
10.799
10.008
9.09526
8.467
8.29246
8.17577
7.69921
6.8793
5.81305
4.53666
3.03952
1.29205
-0.789074
-3.29805
-6.36106
-10.1483
-14.8525
-20.6087
-27.333
-34.5999
-41.7222
-48.0226
-52.9774
-56.1867
-57.3987
-56.6123
-54.0582
-50.056
-44.9967
-39.4423
-34.0021
-29.0285
-24.5784
-20.5789
-16.9469
-13.6293
-10.5862
-7.80038
-5.25935
-2.93889
-0.821984
1.04962
2.69799
3.99663
4.68629
4.60485
3.70364
3.69405
4.85951
6.47632
6.94859
3.51459
-5.90737
-19.0987
-32.7294
-46.0616
-59.0329
-70.4486
-78.915
-84.1906
-86.5704
-86.3247
-83.5862
-78.5729
-71.5841
-62.4996
-50.7422
-36.4724
-21.4112
-7.80742
3.01773
10.8756
16.2172
19.6661
21.7641
22.9322
23.4835
23.6413
23.5568
23.3304
23.0309
22.7048
22.3818
22.076
21.7854
21.4975
21.1995
20.8739
20.4911
20.0126
19.4208
18.7279
17.9519
17.0826
16.0931
14.9332
13.5545
11.8793
-7.97618
-8.0149
-8.08693
-8.18269
-8.29716
-8.41825
-8.53488
-8.64499
-8.75284
-8.85868
-8.951
-9.009
-9.01212
-8.95024
-8.82549
-8.64759
-8.43147
-8.20624
-8.00571
-7.84608
-7.72478
-7.63598
-7.5917
-7.60598
-7.68227
-7.8304
-8.05066
-8.3214
-8.61473
-8.9097
-9.18533
-9.4196
-9.59811
-9.71952
-9.79626
-9.84973
-9.90757
-9.99924
-10.1475
-10.3658
-10.659
-11.0295
-11.4929
-12.0547
-12.6692
-13.2813
-13.8673
-14.4031
-14.8497
-15.168
-15.3258
-15.2935
-15.0361
-14.5194
-13.7262
-12.662
-11.3456
-9.80249
-8.06669
-6.18939
-4.2216
-2.20217
-0.185308
1.74356
3.51012
5.07385
6.38563
7.39338
8.1165
8.69409
9.25204
9.79226
10.2697
10.7092
11.1379
11.5298
11.8486
12.0764
12.202
12.1978
12.0436
11.7567
11.3287
10.6897
9.9407
9.30645
8.76208
8.05072
7.12825
6.07106
4.89905
3.57767
2.06336
0.269642
-1.90456
-4.57931
-7.91551
-12.142
-17.5244
-24.2071
-31.9548
-40.0678
-47.7009
-54.2482
-59.3054
-62.4926
-63.5307
-62.444
-59.5279
-55.1172
-49.5395
-43.3649
-37.3108
-31.8222
-26.9729
-22.6543
-18.7425
-15.1725
-11.9167
-8.9593
-6.30399
-3.93837
-1.82282
0.0562122
1.7624
3.03571
3.79777
3.79822
3.14808
3.24246
4.36748
5.70164
5.38272
0.269626
-10.93
-24.9142
-38.7544
-52.1937
-65.1102
-76.0792
-83.8691
-88.4464
-90.3205
-89.8315
-87.0349
-82.0219
-75.136
-66.4011
-55.0822
-40.9354
-25.4953
-11.2285
0.274188
8.69887
14.4678
18.2318
20.5763
21.9424
22.6543
22.9424
22.9595
22.8084
22.563
22.2749
21.9766
21.6842
21.3984
21.1098
20.8073
20.4754
20.0877
19.6113
19.0326
18.36
17.5974
16.7172
15.6797
14.431
12.924
11.098
-7.91358
-7.93178
-7.97214
-8.03714
-8.12904
-8.24316
-8.3696
-8.50159
-8.63847
-8.77926
-8.91192
-9.01136
-9.04988
-9.00945
-8.88708
-8.68594
-8.4065
-8.07797
-7.77201
-7.53945
-7.37425
-7.25736
-7.19165
-7.18652
-7.2478
-7.38011
-7.57081
-7.80098
-8.05699
-8.32933
-8.603
-8.85756
-9.08294
-9.28436
-9.47491
-9.67125
-9.89304
-10.1624
-10.5
-10.9234
-11.4422
-12.0508
-12.7376
-13.4961
-14.3092
-15.1462
-15.9772
-16.7727
-17.4983
-18.114
-18.5723
-18.8162
-18.7847
-18.4222
-17.6881
-16.5658
-15.0571
-13.1856
-11.0053
-8.59391
-6.03541
-3.4178
-0.848346
1.55096
3.67946
5.47513
6.8942
7.92026
8.62111
9.13398
9.59058
10.0331
10.4467
10.8429
11.2473
11.6451
11.999
12.2802
12.476
12.5598
12.5229
12.4082
12.2445
11.9262
11.3848
10.5782
9.4644
8.12833
6.7928
5.51752
4.24098
2.8704
1.3051
-0.586594
-2.92061
-5.84065
-9.5451
-14.3279
-20.5172
-28.2132
-36.9424
-45.7212
-53.681
-60.3976
-65.531
-68.6058
-69.314
-67.8089
-64.5179
-59.7782
-53.8314
-47.212
-40.6761
-34.7382
-29.5113
-24.8855
-20.7023
-16.8622
-13.3528
-10.1611
-7.30592
-4.80661
-2.64429
-0.759325
0.934219
2.19731
3.12135
3.24794
2.99291
3.12746
4.11161
5.03492
3.78055
-2.87527
-15.3335
-29.7018
-43.6176
-57.1189
-69.9235
-80.5144
-87.8402
-91.9699
-93.5525
-92.9821
-90.2559
-85.3072
-78.462
-69.9593
-59.0495
-45.1181
-29.4243
-14.585
-2.45767
6.49625
12.6619
16.7215
19.3054
20.8689
21.7423
22.1639
22.2894
22.2229
22.0424
21.8032
21.539
21.267
20.991
20.7051
20.4
20.0624
19.6696
19.1951
18.6303
17.9778
17.2249
16.3261
15.2317
13.8875
12.2503
10.2739
-7.86646
-7.85901
-7.84692
-7.85375
-7.90557
-8.00857
-8.15095
-8.3143
-8.48406
-8.6497
-8.79676
-8.90341
-8.94466
-8.89737
-8.7572
-8.53543
-8.21821
-7.81376
-7.41777
-7.12446
-6.93428
-6.80592
-6.72625
-6.7031
-6.74352
-6.84606
-6.99396
-7.16932
-7.36445
-7.58013
-7.8173
-8.0711
-8.33598
-8.61623
-8.92374
-9.27303
-9.67948
-10.1578
-10.7201
-11.3755
-12.1305
-12.9841
-13.9247
-14.9397
-16.0212
-17.1581
-18.3288
-19.5013
-20.6367
-21.6874
-22.5892
-23.2593
-23.6008
-23.5159
-22.9211
-21.7614
-20.015
-17.7047
-14.91
-11.7611
-8.41983
-5.06095
-1.85516
1.04919
3.54658
5.58491
7.14972
8.26502
9.04529
9.59421
10.0038
10.3495
10.6873
11.0324
11.3935
11.7739
12.1482
12.4807
12.759
12.9636
13.0951
13.1993
13.3166
13.3062
12.8592
11.7197
10.0197
8.17748
6.55052
5.1483
3.80844
2.38516
0.724737
-1.31751
-3.87006
-7.09979
-11.2424
-16.6502
-23.6919
-32.3754
-41.9451
-51.1837
-59.3212
-66.1267
-71.2198
-74.0068
-74.2769
-72.3702
-68.7922
-63.8291
-57.6614
-50.7819
-43.9307
-37.6469
-32.0816
-27.1589
-22.7259
-18.6437
-14.8895
-11.4618
-8.3612
-5.63358
-3.31638
-1.36386
0.311597
1.62629
2.72351
3.01015
3.15734
3.33078
4.14802
4.61382
2.42604
-5.52088
-18.8223
-33.3368
-47.2426
-60.7507
-73.4072
-83.7304
-90.8182
-94.7527
-96.2309
-95.6995
-93.1456
-88.3444
-81.5107
-73.1122
-62.5349
-48.8694
-33.0477
-17.745
-5.07205
4.34223
10.854
15.1789
17.9821
19.7326
20.7624
21.3164
21.5539
21.579
21.4723
21.291
21.0687
20.8229
20.5617
20.283
19.9789
19.6379
19.2415
18.7708
18.2214
17.5877
16.8374
15.9082
14.7458
13.2997
11.5299
9.40136
-7.80006
-7.78075
-7.74094
-7.71956
-7.75073
-7.84842
-8.00304
-8.19017
-8.38439
-8.5626
-8.70361
-8.78796
-8.78954
-8.68791
-8.50012
-8.24
-7.87733
-7.43366
-7.02035
-6.71964
-6.52022
-6.37936
-6.28395
-6.23847
-6.24762
-6.30656
-6.39591
-6.50242
-6.62822
-6.78027
-6.96641
-7.19634
-7.47815
-7.8196
-8.22994
-8.71941
-9.29874
-9.97748
-10.7625
-11.6571
-12.6624
-13.7778
-15.0017
-16.3323
-17.7687
-19.3076
-20.9349
-22.6226
-24.3297
-26.0002
-27.5542
-28.8813
-29.8419
-30.2778
-30.03
-28.9583
-26.9808
-24.1064
-20.453
-16.2436
-11.7793
-7.3846
-3.33674
0.183363
3.09267
5.38535
7.10482
8.34665
9.22754
9.85696
10.3064
10.6416
10.9485
11.2752
11.621
11.988
12.3713
12.7431
13.0919
13.4111
13.7004
13.9902
14.2906
14.4524
13.9869
12.4986
10.3222
8.13546
6.343
4.88814
3.51659
2.02069
0.215047
-2.0273
-4.83651
-8.40197
-13.0012
-19.0295
-26.8731
-36.426
-46.6605
-56.1919
-64.4086
-71.2356
-76.2115
-78.7029
-78.6463
-76.4654
-72.6453
-67.4486
-61.089
-54.0548
-47.0278
-40.5032
-34.6436
-29.4202
-24.7257
-20.4249
-16.4416
-12.7963
-9.47816
-6.50343
-3.93479
-1.81234
-0.0685163
1.37179
2.60315
3.14416
3.58533
3.85099
4.5178
4.54434
1.52713
-7.42373
-21.2534
-35.7749
-49.6153
-63.0637
-75.541
-85.6984
-92.7378
-96.6974
-98.2302
-97.8146
-95.4912
-90.9333
-84.1415
-75.7499
-65.4164
-52.0446
-36.2172
-20.5788
-7.47539
2.30128
9.09016
13.6372
16.6324
18.5546
19.7333
20.4163
20.7664
20.8869
20.8593
20.7421
20.5671
20.3523
20.1104
19.8439
19.5455
19.2046
18.8075
18.3435
17.8105
17.191
16.4328
15.4609
14.221
12.6699
10.7717
8.49349
-7.76139
-7.74526
-7.72872
-7.74052
-7.82454
-7.99035
-8.21093
-8.44585
-8.65972
-8.82607
-8.92395
-8.93753
-8.85459
-8.67074
-8.39229
-8.02009
-7.57521
-7.13077
-6.76527
-6.49663
-6.28819
-6.11794
-5.98714
-5.89254
-5.83521
-5.81118
-5.80826
-5.82081
-5.858
-5.93508
-6.06677
-6.26813
-6.55414
-6.93848
-7.43186
-8.04219
-8.77596
-9.63866
-10.6348
-11.7676
-13.038
-14.4471
-16.0001
-17.7069
-19.5765
-21.6126
-23.8115
-26.1613
-28.6366
-31.1855
-33.7104
-36.0508
-37.9804
-39.2284
-39.5081
-38.562
-36.2594
-32.6217
-27.83
-22.2257
-16.2833
-10.5261
-5.38424
-1.08418
2.32456
4.90276
6.79195
8.1683
9.15355
9.86305
10.3849
10.7853
11.1309
11.4752
11.8358
12.2146
12.6169
13.0262
13.4278
13.8268
14.2197
14.6298
14.9986
15.1924
14.6834
12.9566
10.4389
8.02449
6.14447
4.66309
3.25184
1.64028
-0.354457
-2.82556
-5.90175
-9.79435
-14.8113
-21.3781
-29.8859
-40.1366
-50.8835
-60.6252
-68.903
-75.7593
-80.678
-83.0257
-82.7783
-80.3323
-76.1744
-70.6532
-64.0969
-57.0035
-49.9368
-43.2781
-37.1843
-31.6659
-26.6715
-22.1304
-17.9328
-14.0698
-10.5557
-7.3738
-4.54696
-2.17002
-0.242306
1.37719
2.73235
3.63345
4.2644
4.6852
5.23829
4.89083
1.20897
-8.46601
-22.5934
-37.0417
-50.7738
-64.0909
-76.3443
-86.3966
-93.5147
-97.6764
-99.4029
-99.1526
-97.0794
-92.8512
-86.1823
-77.7555
-67.5892
-54.5279
-38.7961
-22.9686
-9.59027
0.425788
7.40958
12.1263
15.2797
17.3541
18.6724
19.4803
19.9421
20.1596
20.2134
20.1629
20.0383
19.8579
19.6398
19.3905
19.1024
18.7655
18.3711
17.9168
17.3992
16.7861
16.0065
14.9815
13.6619
12.0117
9.99527
7.56793
-7.82253
-7.83848
-7.95103
-8.195
-8.54498
-8.94268
-9.32797
-9.65216
-9.88165
-9.99481
-9.98483
-9.85432
-9.59568
-9.21575
-8.74246
-8.19817
-7.65631
-7.22112
-6.89659
-6.61717
-6.35427
-6.1184
-5.91109
-5.72131
-5.5503
-5.39617
-5.25576
-5.1343
-5.05033
-5.02709
-5.08755
-5.25297
-5.53975
-5.96122
-6.52685
-7.24275
-8.11408
-9.14639
-10.3456
-11.717
-13.2644
-14.9925
-16.9127
-19.0454
-21.415
-24.0446
-26.9558
-30.1671
-33.6739
-37.4103
-41.2111
-44.7971
-47.797
-49.7943
-50.3934
-49.3116
-46.4475
-41.8785
-35.86
-28.8337
-21.405
-14.2623
-7.9927
-2.86997
1.11694
4.07986
6.20015
7.71149
8.81759
9.64111
10.263
10.7518
11.1708
11.5691
11.9722
12.3843
12.8126
13.2544
13.6931
14.1321
14.5653
15.0199
15.3921
15.5332
15.0044
13.2078
10.4962
7.90774
5.94466
4.41801
2.93141
1.16226
-1.04996
-3.75828
-7.08383
-11.2654
-16.6242
-23.5943
-32.5777
-43.3448
-54.5155
-64.4901
-72.8937
-79.8574
-84.8371
-87.1573
-86.7231
-83.9141
-79.3177
-73.4435
-66.7369
-59.6768
-52.6622
-45.937
-39.6613
-33.8857
-28.5941
-23.7622
-19.3261
-15.2329
-11.5104
-8.14824
-5.11032
-2.45921
-0.266399
1.56444
3.08905
4.36777
5.14436
5.79661
6.27834
5.66098
1.52134
-8.61808
-22.8761
-37.2063
-50.7929
-63.9211
-75.8902
-85.8439
-93.1048
-97.5871
-99.6229
-99.5887
-97.7836
-93.9385
-87.4755
-79.0362
-69.0003
-56.2344
-40.6769
-24.8289
-11.3585
-1.24579
5.84039
10.6702
13.9469
16.1517
17.5981
18.5247
19.095
19.4084
19.5435
19.5599
19.4868
19.3437
19.1541
18.9271
18.653
18.323
17.935
17.4925
16.9869
16.3691
15.5548
14.4722
13.0802
11.3445
9.21833
6.63264
-7.99722
-8.22852
-8.71925
-9.34885
-9.97475
-10.5271
-10.9797
-11.3143
-11.5078
-11.5446
-11.4244
-11.1469
-10.7205
-10.1738
-9.55094
-8.92573
-8.37537
-7.91417
-7.5019
-7.10417
-6.72371
-6.37438
-6.04043
-5.70786
-5.37675
-5.04747
-4.72798
-4.43482
-4.19792
-4.05019
-4.02022
-4.13407
-4.41031
-4.86025
-5.48981
-6.3018
-7.30053
-8.49407
-9.89263
-11.5053
-13.3389
-15.4027
-17.717
-20.3184
-23.2563
-26.5871
-30.3673
-34.6314
-39.3478
-44.365
-49.3783
-53.9509
-57.5833
-59.7936
-60.1989
-58.6209
-55.0364
-49.5873
-42.5902
-34.5372
-26.0748
-17.9498
-10.858
-5.15033
-0.723347
2.66084
5.15924
6.93428
8.21171
9.17661
9.93622
10.5549
11.0822
11.561
12.023
12.48
12.9362
13.3984
13.8529
14.2956
14.7164
15.1404
15.4922
15.5619
15.037
13.3228
10.5691
7.84065
5.75803
4.14788
2.55131
0.604428
-1.82812
-4.76319
-8.31617
-12.7368
-18.3452
-25.5649
-34.8267
-45.9457
-57.519
-67.8275
-76.4638
-83.6067
-88.7063
-91.0228
-90.3574
-87.1156
-82.053
-75.8667
-69.0925
-62.1417
-55.2283
-48.4779
-42.0495
-36.0542
-30.5036
-25.3724
-20.6525
-16.3013
-12.3308
-8.76598
-5.55544
-2.6674
-0.185575
1.88858
3.63186
5.22019
6.1551
7.09955
7.5491
6.7965
2.43232
-7.9189
-22.1729
-36.3643
-49.7814
-62.6847
-74.327
-84.1358
-91.5334
-96.3765
-98.8045
-99.0599
-97.5631
-94.1245
-87.9248
-79.5344
-69.6176
-57.1157
-41.8015
-26.1081
-12.7414
-2.68446
4.40747
9.29291
12.6569
14.969
16.5297
17.5661
18.2386
18.6439
18.8581
18.9403
18.9188
18.8157
18.6594
18.4585
18.2004
17.8795
17.5009
17.0712
16.5709
15.9355
15.0775
13.9428
12.4932
10.6859
8.44656
5.67497
-8.69974
-9.16275
-9.85396
-10.4991
-11.0559
-11.5292
-11.9113
-12.1881
-12.3419
-12.3593
-12.2314
-11.954
-11.5397
-11.0272
-10.4657
-9.90088
-9.36491
-8.85222
-8.33841
-7.82036
-7.3149
-6.82244
-6.31633
-5.79192
-5.25438
-4.70908
-4.17534
-3.68201
-3.26936
-2.98019
-2.84904
-2.90355
-3.16243
-3.63431
-4.32154
-5.22435
-6.34619
-7.69707
-9.29146
-11.143
-13.2634
-15.6702
-18.4006
-21.5157
-25.0938
-29.2161
-33.9418
-39.2639
-45.0505
-51.0061
-56.6826
-61.553
-65.1068
-66.9289
-66.765
-64.5301
-60.2745
-54.1938
-46.6293
-38.0851
-29.2034
-20.7021
-13.2862
-7.37266
-2.82367
0.750127
3.56748
5.71768
7.31315
8.50439
9.43253
10.1953
10.851
11.4386
11.9834
12.4992
12.988
13.4611
13.9138
14.3355
14.7072
15.0459
15.3433
15.3635
14.8585
13.3234
10.6739
7.85715
5.61914
3.88459
2.16293
0.043647
-2.59279
-5.72726
-9.47825
-14.0919
-19.8654
-27.195
-36.5442
-47.8614
-59.8339
-70.5984
-79.569
-86.9181
-92.143
-94.455
-93.5541
-89.8714
-84.3561
-77.9255
-71.1934
-64.4291
-57.6583
-50.9224
-44.3734
-38.1751
-32.389
-26.989
-21.9604
-17.3149
-13.0693
-9.25397
-5.85166
-2.7709
-0.0392609
2.30684
4.27375
6.08376
7.27236
8.44722
8.91684
8.17993
3.84042
-6.46038
-20.592
-34.6387
-47.8795
-60.5294
-71.8384
-81.4442
-88.9181
-94.0906
-96.9401
-97.5566
-96.4241
-93.4011
-87.4993
-79.2271
-69.4322
-57.1627
-42.1523
-26.7855
-13.7169
-3.86766
3.13381
8.01876
11.4353
13.8304
15.4885
16.623
17.3882
17.8784
18.1673
18.3129
18.3427
18.282
18.1625
17.9893
17.7473
17.4369
17.0702
16.652
16.1477
15.4833
14.5815
13.409
11.9177
10.0428
7.66769
4.66321
-9.60879
-10.0024
-10.4933
-10.9554
-11.3834
-11.7548
-12.0486
-12.2546
-12.3675
-12.3868
-12.3119
-12.141
-11.8816
-11.5553
-11.1889
-10.7993
-10.3805
-9.91222
-9.38323
-8.80342
-8.18734
-7.51731
-6.77195
-5.97343
-5.15092
-4.32756
-3.53474
-2.8114
-2.20443
-1.76278
-1.52631
-1.52305
-1.76966
-2.27083
-3.02345
-4.02334
-5.27193
-6.78029
-8.56753
-10.6549
-13.0649
-15.832
-19.0157
-22.6993
-26.9708
-31.8932
-37.466
-43.5794
-49.9705
-56.224
-61.8343
-66.3019
-69.223
-70.3232
-69.4588
-66.5883
-61.8077
-55.35
-47.5831
-39.0172
-30.2792
-22.011
-14.7907
-8.99035
-4.53345
-0.99574
1.92739
4.30404
6.17345
7.63332
8.78318
9.71786
10.5095
11.2044
11.8318
12.4139
12.9485
13.435
13.8783
14.2672
14.5772
14.8104
15.0022
14.9856
14.5139
13.2022
10.7864
7.96001
5.54951
3.65077
1.80372
-0.464132
-3.27765
-6.58287
-10.4904
-15.2466
-21.1145
-28.4509
-37.726
-49.0518
-61.3434
-72.6677
-82.0865
-89.6656
-95.0087
-97.3115
-96.1925
-92.0811
-86.1619
-79.6155
-73.087
-66.61
-60.0286
-53.3391
-46.6928
-40.2777
-34.2288
-28.5739
-23.2703
-18.3168
-13.7712
-9.68485
-6.05091
-2.77877
0.159568
2.76591
4.93599
6.90232
8.40824
9.67226
10.2735
9.67436
5.60604
-4.35547
-18.235
-32.1275
-45.1973
-57.5742
-68.5611
-77.923
-85.3923
-90.8204
-94.0695
-95.0957
-94.388
-91.7848
-86.1988
-78.1121
-68.4535
-56.3857
-41.737
-26.8655
-14.2845
-4.78676
2.03267
6.86197
10.2967
12.7507
14.4885
15.7078
16.5549
17.1213
17.4793
17.6852
17.7655
17.7488
17.6675
17.5211
17.2938
16.9954
16.6424
16.2318
15.7129
15.0141
14.0791
12.8864