/*--------------------------------*- C++ -*----------------------------------*\
  =========                 |
  \\      /  F ield         | OpenFOAM: The Open Source CFD Toolbox
   \\    /   O peration     | Website:  https://openfoam.org
    \\  /    A nd           | Version:  6
     \\/     M anipulation  |
\*---------------------------------------------------------------------------*/
FoamFile
{
    version     2.0;
    format      ascii;
    class       surfaceScalarField;
    location    "0.15";
    object      phi;
}
// * * * * * * * * * * * * * * * * * * * * * * * * * * * * * * * * * * * * * //

dimensions      [0 3 -1 0 0 0 0];

internalField   nonuniform List<scalar> 
24170
(
3.11971e-06
1.14941e-07
3.0012e-06
1.18513e-07
2.88825e-06
1.1295e-07
2.79612e-06
9.21249e-08
2.73102e-06
6.51058e-08
2.6716e-06
5.94158e-08
2.59638e-06
7.52226e-08
2.50598e-06
9.0404e-08
2.41554e-06
9.04315e-08
2.33683e-06
7.87166e-08
2.27012e-06
6.67029e-08
2.20936e-06
6.07679e-08
2.14758e-06
6.17764e-08
2.08578e-06
6.18029e-08
2.02585e-06
5.99303e-08
1.97055e-06
5.52966e-08
1.92075e-06
4.9803e-08
4.32239e-08
1.87752e-06
3.41963e-06
1.16363e-07
3.44289e-06
9.52458e-08
3.45258e-06
1.03266e-07
3.44397e-06
1.00733e-07
3.43749e-06
7.15808e-08
3.44277e-06
5.41403e-08
3.45128e-06
6.67155e-08
3.45379e-06
8.78897e-08
3.45007e-06
9.41513e-08
3.44501e-06
8.37726e-08
3.44166e-06
7.00618e-08
3.4391e-06
6.33232e-08
3.43382e-06
6.70561e-08
3.42311e-06
7.25106e-08
3.40723e-06
7.58146e-08
3.38814e-06
7.43805e-08
3.37104e-06
6.69066e-08
5.81848e-08
3.35608e-06
3.66034e-06
9.77632e-08
3.66014e-06
9.54405e-08
3.6959e-06
6.75115e-08
3.73816e-06
5.8473e-08
3.76297e-06
4.6767e-08
3.77004e-06
4.70673e-08
3.76908e-06
6.76794e-08
3.7689e-06
8.8067e-08
3.77205e-06
9.10033e-08
3.77596e-06
7.98642e-08
3.77714e-06
6.88841e-08
3.77417e-06
6.62861e-08
3.76852e-06
7.27075e-08
3.76113e-06
7.99072e-08
3.75407e-06
8.28664e-08
3.74874e-06
7.97151e-08
3.74522e-06
7.04277e-08
5.63284e-08
3.74707e-06
3.92649e-06
1.47471e-07
3.95181e-06
7.01268e-08
3.96352e-06
5.57988e-08
3.94723e-06
7.47658e-08
3.92054e-06
7.3455e-08
3.90237e-06
6.52318e-08
3.90101e-06
6.90452e-08
3.91393e-06
7.51503e-08
3.9341e-06
7.08281e-08
3.95544e-06
5.85285e-08
3.9747e-06
4.96232e-08
3.99087e-06
5.01098e-08
4.00469e-06
5.88887e-08
4.01574e-06
6.88608e-08
4.02457e-06
7.4038e-08
4.0317e-06
7.25779e-08
4.03786e-06
6.42673e-08
4.85516e-08
4.04564e-06
4.23044e-06
1.5622e-07
4.2367e-06
6.38676e-08
4.26496e-06
2.75387e-08
4.27738e-06
6.23479e-08
4.2614e-06
8.94341e-08
4.2326e-06
9.40311e-08
4.21372e-06
8.79255e-08
4.21313e-06
7.57408e-08
4.22491e-06
5.90497e-08
4.24016e-06
4.32752e-08
4.25411e-06
3.56784e-08
4.26587e-06
3.83459e-08
4.27643e-06
4.83327e-08
4.28588e-06
5.94125e-08
4.29435e-06
6.55655e-08
4.30213e-06
6.47968e-08
4.30953e-06
5.68632e-08
4.1233e-08
4.31685e-06
4.53614e-06
1.4606e-07
4.58556e-06
1.44474e-08
4.61876e-06
-5.66612e-09
4.65372e-06
2.73877e-08
4.68005e-06
6.3101e-08
4.68147e-06
9.26125e-08
4.66104e-06
1.08358e-07
4.6309e-06
1.05877e-07
4.59985e-06
9.0101e-08
4.57228e-06
7.08482e-08
4.55156e-06
5.6401e-08
4.54032e-06
4.95808e-08
4.54005e-06
4.86045e-08
4.54985e-06
4.96137e-08
4.5667e-06
4.87097e-08
4.58748e-06
4.40221e-08
4.60853e-06
3.5812e-08
2.31205e-08
4.62664e-06
4.95292e-06
8.79387e-08
4.94503e-06
2.23326e-08
4.95171e-06
-1.23379e-08
4.95279e-06
2.63014e-08
4.94982e-06
6.60782e-08
4.94666e-06
9.57719e-08
4.94134e-06
1.13673e-07
4.93078e-06
1.16442e-07
4.91558e-06
1.05293e-07
4.9006e-06
8.5833e-08
4.89191e-06
6.50906e-08
4.89328e-06
4.82063e-08
4.90481e-06
3.70763e-08
4.92361e-06
3.08115e-08
4.94467e-06
2.76511e-08
4.96355e-06
2.51401e-08
4.97673e-06
2.26314e-08
1.77736e-08
4.98208e-06
5.29629e-06
1.36248e-07
5.30186e-06
1.67537e-08
5.30359e-06
-1.40593e-08
5.29411e-06
3.57726e-08
5.28407e-06
7.61197e-08
5.27904e-06
1.00802e-07
5.27907e-06
1.13647e-07
5.28064e-06
1.14873e-07
5.27918e-06
1.06753e-07
5.27202e-06
9.29969e-08
5.2598e-06
7.7309e-08
5.24631e-06
6.16912e-08
5.23628e-06
4.71041e-08
5.23354e-06
3.35511e-08
5.23988e-06
2.13173e-08
5.25424e-06
1.07792e-08
5.27536e-06
1.51029e-09
-5.06893e-09
5.2982e-06
5.54149e-06
9.9647e-08
5.6035e-06
-4.52507e-08
5.61731e-06
-2.7875e-08
5.60006e-06
5.30283e-08
5.5929e-06
8.32746e-08
5.60343e-06
9.02725e-08
5.62025e-06
9.68248e-08
5.63151e-06
1.03612e-07
5.63151e-06
1.06756e-07
5.6212e-06
1.03311e-07
5.60605e-06
9.24548e-08
5.59267e-06
7.50764e-08
5.58579e-06
5.39776e-08
5.58703e-06
3.23169e-08
5.59573e-06
1.26175e-08
5.60994e-06
-3.4362e-09
5.62736e-06
-1.59079e-08
-2.41246e-08
5.64642e-06
5.97816e-06
1.7425e-08
5.9633e-06
-3.03917e-08
5.89735e-06
3.80726e-08
5.85963e-06
9.07448e-08
5.87097e-06
7.19395e-08
5.91229e-06
4.89486e-08
5.9532e-06
5.59131e-08
5.97567e-06
8.11454e-08
5.98167e-06
1.00762e-07
5.98358e-06
1.01392e-07
5.99167e-06
8.43714e-08
6.00843e-06
5.83103e-08
6.03081e-06
3.1604e-08
6.0539e-06
9.22209e-09
6.07409e-06
-7.56891e-09
6.08987e-06
-1.92145e-08
6.10082e-06
-2.6864e-08
-3.23122e-08
6.10901e-06
6.39607e-06
-5.13859e-08
6.46478e-06
-9.9095e-08
6.49696e-06
5.88688e-09
6.49189e-06
9.58118e-08
6.46228e-06
1.0155e-07
6.42245e-06
8.87844e-08
6.39181e-06
8.65515e-08
6.38456e-06
8.83992e-08
6.40153e-06
8.3788e-08
6.43309e-06
6.98309e-08
6.46678e-06
5.06865e-08
6.49339e-06
3.16934e-08
6.50934e-06
1.56516e-08
6.51547e-06
3.09597e-09
6.515e-06
-7.09623e-09
6.51077e-06
-1.49916e-08
6.5058e-06
-2.18881e-08
-2.59509e-08
6.49944e-06
5.72523e-06
-8.41292e-08
5.69415e-06
-6.80137e-08
5.68671e-06
1.33269e-08
5.67708e-06
1.05442e-07
5.66365e-06
1.14982e-07
5.66235e-06
9.00834e-08
5.68206e-06
6.68425e-08
5.71742e-06
5.30356e-08
5.75598e-06
4.52262e-08
5.78671e-06
3.9108e-08
5.80413e-06
3.32652e-08
5.8082e-06
2.76254e-08
5.80241e-06
2.14348e-08
5.79172e-06
1.3786e-08
5.78096e-06
3.66377e-09
5.77357e-06
-7.5944e-09
5.77122e-06
-1.95384e-08
-2.98837e-08
5.77515e-06
7.02711e-06
-2.19548e-07
7.11357e-06
-1.54474e-07
7.11396e-06
1.29381e-08
7.11456e-06
1.04847e-07
7.13281e-06
9.67299e-08
7.15947e-06
6.34219e-08
7.17563e-06
5.06851e-08
7.17012e-06
5.85483e-08
7.14695e-06
6.83911e-08
7.11805e-06
6.80125e-08
7.09335e-06
5.79602e-08
7.07739e-06
4.35908e-08
7.0699e-06
2.89275e-08
7.06943e-06
1.42467e-08
7.07354e-06
-4.43517e-10
7.08084e-06
-1.48937e-08
7.0894e-06
-2.80957e-08
-3.70901e-08
7.0966e-06
8.53865e-06
-1.0591e-07
8.41522e-06
-3.10465e-08
8.33886e-06
8.92995e-08
8.3445e-06
9.92076e-08
8.4026e-06
3.86305e-08
8.48286e-06
-1.68399e-08
8.55768e-06
-2.41365e-08
8.60931e-06
6.91841e-09
8.63548e-06
4.22261e-08
8.64427e-06
5.92207e-08
8.64534e-06
5.68895e-08
8.64594e-06
4.29892e-08
8.65041e-06
2.44527e-08
8.6609e-06
3.75709e-09
8.67839e-06
-1.79319e-08
8.70152e-06
-3.80196e-08
8.72893e-06
-5.55044e-08
-6.50127e-08
8.75685e-06
1.0478e-05
4.73836e-08
1.04175e-05
2.94576e-08
1.04215e-05
8.53413e-08
1.04783e-05
4.24341e-08
1.05437e-05
-2.68179e-08
1.05646e-05
-3.77687e-08
1.05343e-05
6.20325e-09
1.04844e-05
5.68541e-08
1.0448e-05
7.85891e-08
1.04384e-05
6.88343e-08
1.04497e-05
4.55862e-08
1.04675e-05
2.51624e-08
1.04792e-05
1.27483e-08
1.04783e-05
4.70516e-09
1.04664e-05
-6.04412e-09
1.04492e-05
-2.08416e-08
1.04342e-05
-4.04803e-08
-5.92559e-08
1.04284e-05
1.26947e-05
8.08444e-08
1.2633e-05
9.10826e-08
1.26753e-05
4.31284e-08
1.27419e-05
-2.41719e-08
1.2787e-05
-7.19006e-08
1.28154e-05
-6.62236e-08
1.28408e-05
-1.91681e-08
1.28754e-05
2.22065e-08
1.2924e-05
3.00616e-08
1.29778e-05
1.49862e-08
1.30206e-05
2.82894e-09
1.30382e-05
7.48958e-09
1.30261e-05
2.48673e-08
1.29895e-05
4.13527e-08
1.29395e-05
4.39271e-08
1.28888e-05
2.98344e-08
1.28467e-05
1.64413e-09
-2.85738e-08
1.2816e-05
1.56536e-05
1.70063e-07
1.54833e-05
2.61343e-07
1.53595e-05
1.66881e-07
1.5327e-05
8.35306e-09
1.53452e-05
-9.00802e-08
1.53709e-05
-9.19552e-08
1.53892e-05
-3.74293e-08
1.53982e-05
1.32114e-08
1.54002e-05
2.80861e-08
1.54008e-05
1.43148e-08
1.54083e-05
-4.58826e-09
1.54289e-05
-1.31906e-08
1.54649e-05
-1.10622e-08
1.5513e-05
-6.79488e-09
1.55659e-05
-8.94897e-09
1.56156e-05
-1.99067e-08
1.56544e-05
-3.71077e-08
-5.68038e-08
1.56826e-05
1.87759e-05
2.59324e-07
1.88776e-05
1.59637e-07
1.89428e-05
1.01688e-07
1.89036e-05
4.74989e-08
1.88199e-05
-6.30531e-09
1.8761e-05
-3.31192e-08
1.87545e-05
-3.0864e-08
1.87891e-05
-2.14563e-08
1.88417e-05
-2.44464e-08
1.88961e-05
-4.01398e-08
1.89492e-05
-5.76365e-08
1.90043e-05
-6.83636e-08
1.90636e-05
-7.03548e-08
1.91232e-05
-6.63225e-08
1.91729e-05
-5.86642e-08
1.92026e-05
-4.96261e-08
1.92044e-05
-3.89066e-08
-2.42327e-08
1.91718e-05
2.28085e-05
-1.65866e-09
2.29155e-05
5.2574e-08
2.29898e-05
2.74347e-08
2.30319e-05
5.35927e-09
2.30389e-05
-1.33439e-08
2.30269e-05
-2.10402e-08
2.30089e-05
-1.28957e-08
2.29851e-05
2.29432e-09
2.29481e-05
1.26226e-08
2.28967e-05
1.12738e-08
2.28418e-05
-2.77951e-09
2.27997e-05
-2.63024e-08
2.27823e-05
-5.29142e-08
2.27917e-05
-7.57115e-08
2.28219e-05
-8.88732e-08
2.28622e-05
-8.99591e-08
2.29033e-05
-7.99348e-08
-6.30952e-08
2.29421e-05
1.68645e-05
7.81015e-09
1.69336e-05
-1.64771e-08
1.69413e-05
1.96714e-08
1.68911e-05
5.55893e-08
1.68101e-05
6.77065e-08
1.67289e-05
6.01358e-08
1.66769e-05
3.90782e-08
1.66668e-05
1.24054e-08
1.66928e-05
-1.33306e-08
1.67402e-05
-3.62057e-08
1.67939e-05
-5.6446e-08
1.68406e-05
-7.30421e-08
1.68714e-05
-8.36812e-08
1.68827e-05
-8.69682e-08
1.68774e-05
-8.35652e-08
1.68628e-05
-7.53754e-08
1.68476e-05
-6.47997e-08
-5.16434e-08
1.68362e-05
1.49089e-05
1.66306e-07
1.48429e-05
4.94686e-08
1.48115e-05
5.11374e-08
1.4785e-05
8.21138e-08
1.47558e-05
9.68962e-08
1.47377e-05
7.81823e-08
1.4745e-05
3.17972e-08
1.47775e-05
-2.00493e-08
1.4824e-05
-5.98692e-08
1.48701e-05
-8.22943e-08
1.49031e-05
-8.94228e-08
1.49153e-05
-8.5261e-08
1.49055e-05
-7.39083e-08
1.48782e-05
-5.96895e-08
1.48409e-05
-4.62829e-08
1.48011e-05
-3.55514e-08
1.47642e-05
-2.78459e-08
-2.41627e-08
1.47367e-05
1.3021e-05
-2.00671e-08
1.30549e-05
1.55357e-08
1.30409e-05
6.51255e-08
1.30058e-05
1.17234e-07
1.29418e-05
1.60954e-07
1.28682e-05
1.517e-07
1.28115e-05
8.85219e-08
1.27813e-05
1.01335e-08
1.27715e-05
-4.99988e-08
1.27741e-05
-8.4938e-08
1.27862e-05
-1.01462e-07
1.28057e-05
-1.04805e-07
1.28287e-05
-9.69071e-08
1.28493e-05
-8.02512e-08
1.28631e-05
-6.01301e-08
1.28692e-05
-4.16158e-08
1.28698e-05
-2.84833e-08
-2.08464e-08
1.28665e-05
1.10104e-05
-1.46421e-07
1.1067e-05
-4.10548e-08
1.10654e-05
6.67312e-08
1.10647e-05
1.17947e-07
1.10948e-05
1.30829e-07
1.1169e-05
7.75793e-08
1.12579e-05
-3.78794e-10
1.13158e-05
-4.78248e-08
1.13189e-05
-5.30699e-08
1.12742e-05
-4.02844e-08
1.12062e-05
-3.34635e-08
1.11389e-05
-3.74892e-08
1.10865e-05
-4.44904e-08
1.10525e-05
-4.62827e-08
1.10346e-05
-4.21837e-08
1.10286e-05
-3.56612e-08
1.10314e-05
-3.12913e-08
-3.29271e-08
1.10435e-05
9.71474e-06
1.18527e-08
9.60332e-06
7.03698e-08
9.5661e-06
1.03954e-07
9.59357e-06
9.04782e-08
9.65487e-06
6.95268e-08
9.68504e-06
4.74103e-08
9.6653e-06
1.93584e-08
9.62545e-06
-7.97715e-09
9.59932e-06
-2.69389e-08
9.59631e-06
-3.72682e-08
9.60507e-06
-4.2226e-08
9.61132e-06
-4.37441e-08
9.60925e-06
-4.24124e-08
9.6024e-06
-3.94392e-08
9.59796e-06
-3.77425e-08
9.60126e-06
-3.89576e-08
9.61385e-06
-4.38884e-08
-5.08255e-08
9.63175e-06
8.30428e-06
3.69654e-09
8.36249e-06
1.21529e-08
8.41695e-06
4.95009e-08
8.43664e-06
7.07808e-08
8.43931e-06
6.68635e-08
8.46511e-06
2.16068e-08
8.52619e-06
-4.17185e-08
8.60215e-06
-8.39374e-08
8.66171e-06
-8.64993e-08
8.68217e-06
-5.77355e-08
8.65863e-06
-1.86852e-08
8.60292e-06
1.19676e-08
8.53578e-06
2.47329e-08
8.47662e-06
1.97144e-08
8.43627e-06
2.61103e-09
8.41625e-06
-1.89338e-08
8.41193e-06
-3.95772e-08
-5.58503e-08
8.41696e-06
7.35738e-06
-2.63302e-07
7.3586e-06
1.09281e-08
7.3296e-06
7.85059e-08
7.32022e-06
8.01634e-08
7.32479e-06
6.22881e-08
7.32411e-06
2.22915e-08
7.30566e-06
-2.32694e-08
7.27566e-06
-5.39358e-08
7.25015e-06
-6.09905e-08
7.24171e-06
-4.92931e-08
7.25402e-06
-3.09997e-08
7.2835e-06
-1.75164e-08
7.32254e-06
-1.43015e-08
7.36212e-06
-1.98632e-08
7.39412e-06
-2.93893e-08
7.4137e-06
-3.85127e-08
7.41954e-06
-4.54228e-08
-4.95032e-08
7.41319e-06
6.15307e-06
-2.4872e-07
6.18019e-06
-1.61961e-08
6.25306e-06
5.63863e-09
6.3362e-06
-2.97936e-09
6.40138e-06
-2.89312e-09
6.43474e-06
-1.10661e-08
6.44008e-06
-2.86087e-08
6.4332e-06
-4.70587e-08
6.42987e-06
-5.76588e-08
6.43809e-06
-5.7514e-08
6.45723e-06
-5.01364e-08
6.48134e-06
-4.16229e-08
6.50363e-06
-3.6594e-08
6.51988e-06
-3.61183e-08
6.52874e-06
-3.82468e-08
6.53091e-06
-4.06783e-08
6.5269e-06
-4.14153e-08
-4.14951e-08
6.51889e-06
5.48902e-06
-2.91146e-07
5.5208e-06
-4.79753e-08
5.47975e-06
4.6695e-08
5.45116e-06
2.56049e-08
5.46459e-06
-1.63227e-08
5.50567e-06
-5.21472e-08
5.55587e-06
-7.88041e-08
5.60244e-06
-9.36276e-08
5.63741e-06
-9.26298e-08
5.6577e-06
-7.78072e-08
5.66563e-06
-5.80649e-08
5.66718e-06
-4.31768e-08
5.6685e-06
-3.79094e-08
5.67344e-06
-4.10555e-08
5.68258e-06
-4.73951e-08
5.69433e-06
-5.24198e-08
5.70636e-06
-5.34531e-08
-4.95586e-08
5.71443e-06
4.71877e-06
-1.81027e-07
4.7315e-06
-6.07025e-08
4.81318e-06
-3.49847e-08
4.89475e-06
-5.59699e-08
4.94154e-06
-6.31081e-08
4.95357e-06
-6.4178e-08
4.94493e-06
-7.01676e-08
4.92864e-06
-7.73331e-08
4.91232e-06
-7.63159e-08
4.89986e-06
-6.53452e-08
4.8929e-06
-5.11009e-08
4.89097e-06
-4.12471e-08
4.89176e-06
-3.86991e-08
4.89245e-06
-4.17528e-08
4.89165e-06
-4.65919e-08
4.88944e-06
-5.02066e-08
4.88692e-06
-5.09402e-08
-4.9337e-08
4.8867e-06
4.12251e-06
4.0618e-06
4.02682e-06
3.97085e-06
3.90774e-06
3.84356e-06
3.77339e-06
3.69606e-06
3.61975e-06
3.5544e-06
3.5033e-06
3.46205e-06
3.42335e-06
3.3816e-06
3.33501e-06
3.2848e-06
3.23386e-06
3.18452e-06
6.95314e-08
-6.95314e-08
1.11442e-07
-4.19104e-08
1.14447e-07
-3.0055e-09
8.23708e-08
3.20765e-08
2.49547e-08
5.74161e-08
-4.37601e-08
6.87148e-08
-1.09065e-07
6.53049e-08
-1.6862e-07
5.95546e-08
-2.38881e-07
7.02616e-08
-3.40139e-07
1.01258e-07
-4.85986e-07
1.45847e-07
-6.7371e-07
1.87724e-07
-8.70955e-07
1.97245e-07
-1.02392e-06
1.52967e-07
-1.10806e-06
8.4135e-08
-1.13863e-06
3.05764e-08
-1.12826e-06
-1.03723e-08
-1.0794e-06
-4.88594e-08
-9.99139e-07
-8.02629e-08
-8.96057e-07
-1.03082e-07
-7.75034e-07
-1.21024e-07
-6.39678e-07
-1.35356e-07
-4.94027e-07
-1.45651e-07
-3.42311e-07
-1.51716e-07
-1.89493e-07
-1.52818e-07
-4.11026e-08
-1.48391e-07
9.77584e-08
-1.38861e-07
2.22248e-07
-1.24489e-07
3.29159e-07
-1.06911e-07
4.14373e-07
-8.52141e-08
4.73319e-07
-5.89461e-08
5.02138e-07
-2.88193e-08
4.9906e-07
3.07886e-09
4.64763e-07
3.42961e-08
4.01924e-07
6.28391e-08
3.15529e-07
8.63957e-08
2.11494e-07
1.04035e-07
9.52658e-08
1.16228e-07
-2.8362e-08
1.23628e-07
-1.55148e-07
1.26786e-07
-2.82525e-07
1.27376e-07
-4.09729e-07
1.27204e-07
-5.37313e-07
1.27585e-07
-6.66179e-07
1.28865e-07
-7.97423e-07
1.31244e-07
-9.32332e-07
1.34909e-07
-1.07062e-06
1.38292e-07
-1.20841e-06
1.37789e-07
-1.33917e-06
1.30761e-07
-1.45646e-06
1.17288e-07
-1.55502e-06
9.85623e-08
-1.63234e-06
7.73157e-08
-1.6873e-06
5.49636e-08
-1.71717e-06
2.98706e-08
-1.71767e-06
4.93631e-10
-1.68303e-06
-3.46357e-08
-1.60664e-06
-7.63926e-08
-1.48437e-06
-1.22265e-07
-1.31588e-06
-1.68499e-07
-1.10563e-06
-2.10242e-07
-8.64051e-07
-2.41583e-07
-6.0986e-07
-2.54191e-07
-3.59905e-07
-2.49955e-07
-1.2747e-07
-2.32435e-07
7.94258e-08
-2.06896e-07
2.59498e-07
-1.80072e-07
4.17561e-07
-1.58063e-07
5.60687e-07
-1.43126e-07
6.9823e-07
-1.37543e-07
8.38379e-07
-1.40148e-07
9.88147e-07
-1.49768e-07
1.13631e-06
-1.48164e-07
1.25115e-06
-1.14838e-07
1.30838e-06
-5.72258e-08
1.37024e-06
-6.18619e-08
1.47999e-06
-1.09748e-07
1.5435e-06
-6.35183e-08
1.5303e-06
1.32081e-08
1.54753e-06
-1.72353e-08
1.63289e-06
-8.53608e-08
1.69167e-06
-5.87763e-08
1.68356e-06
8.11059e-09
1.68231e-06
1.25063e-09
1.6982e-06
-1.5895e-08
1.719e-06
-2.07975e-08
1.72362e-06
-4.6243e-09
1.62546e-06
9.81621e-08
1.38069e-06
2.44775e-07
1.3483e-06
3.23882e-08
1.53494e-06
-1.86644e-07
1.434e-06
1.00939e-07
9.26094e-07
5.07909e-07
2.17121e-07
7.08973e-07
-5.26732e-07
7.43853e-07
-1.29538e-06
7.68651e-07
-2.08623e-06
7.90844e-07
-2.9152e-06
8.28977e-07
-3.77136e-06
8.56157e-07
-4.64851e-06
8.77147e-07
-5.52931e-06
8.80803e-07
-6.39232e-06
8.63011e-07
-7.20954e-06
8.1722e-07
-7.95281e-06
7.43267e-07
-8.5905e-06
6.37685e-07
-9.08984e-06
4.99349e-07
-9.4198e-06
3.29953e-07
-9.55957e-06
1.39775e-07
-9.50789e-06
-5.16837e-08
-9.28445e-06
-2.23434e-07
-8.91447e-06
-3.69987e-07
-8.42824e-06
-4.86225e-07
-7.86156e-06
-5.66682e-07
-7.24687e-06
-6.14691e-07
-6.6111e-06
-6.35773e-07
-5.97273e-06
-6.3837e-07
-5.34347e-06
-6.29259e-07
-4.72892e-06
-6.14548e-07
-4.13096e-06
-5.97955e-07
-3.54897e-06
-5.81991e-07
-2.98109e-06
-5.67889e-07
-2.42465e-06
-5.56434e-07
-1.87537e-06
-5.49277e-07
-1.32634e-06
-5.49031e-07
-7.76166e-07
-5.50176e-07
-2.55514e-07
-5.20653e-07
1.89534e-09
-2.57409e-07
5.02429e-07
-5.00534e-07
1.27279e-06
-7.70361e-07
1.90784e-06
-6.35045e-07
2.13571e-06
-2.27876e-07
2.16203e-06
-2.63228e-08
2.01042e-06
1.51614e-07
1.67371e-06
3.36709e-07
1.68565e-06
-1.19345e-08
1.90616e-06
-2.2051e-07
9.71432e-07
9.34724e-07
-2.17646e-06
3.14789e-06
-6.25479e-06
4.07833e-06
-9.47768e-06
3.22289e-06
-1.16743e-05
2.19664e-06
-1.30442e-05
1.36991e-06
-1.37916e-05
7.47354e-07
-1.40834e-05
2.91859e-07
-1.40227e-05
-6.07031e-08
-1.36886e-05
-3.34157e-07
-1.31225e-05
-5.66109e-07
-1.2336e-05
-7.86511e-07
-1.13275e-05
-1.00842e-06
-1.01067e-05
-1.22085e-06
-8.72824e-06
-1.37845e-06
-7.28709e-06
-1.44115e-06
-5.88315e-06
-1.40394e-06
-4.58666e-06
-1.29648e-06
-3.43768e-06
-1.14898e-06
-2.44619e-06
-9.91486e-07
-1.60314e-06
-8.43052e-07
-8.87196e-07
-7.15946e-07
-2.74476e-07
-6.1272e-07
2.57677e-07
-5.32153e-07
7.31425e-07
-4.73748e-07
1.16886e-06
-4.37438e-07
1.58551e-06
-4.16648e-07
1.98933e-06
-4.03818e-07
2.38702e-06
-3.97689e-07
2.78442e-06
-3.97399e-07
3.18824e-06
-4.03821e-07
3.60289e-06
-4.14647e-07
4.03143e-06
-4.28545e-07
4.47403e-06
-4.42602e-07
4.92854e-06
-4.54509e-07
5.37737e-06
-4.48829e-07
5.80781e-06
-4.30441e-07
6.20242e-06
-3.94611e-07
6.56654e-06
-3.64112e-07
6.88878e-06
-3.22246e-07
7.19904e-06
-3.10259e-07
7.48152e-06
-2.82475e-07
7.75512e-06
-2.73602e-07
7.87105e-06
-1.15929e-07
1.1815e-07
7.7529e-06
-6.27265e-08
-6.80489e-09
-1.58389e-07
5.37519e-08
-2.56706e-07
9.53116e-08
-3.39947e-07
1.15317e-07
-4.07013e-07
1.24482e-07
-4.76486e-07
1.38188e-07
-5.74152e-07
1.62971e-07
-7.07602e-07
1.93004e-07
-8.57324e-07
2.19984e-07
-9.94503e-07
2.38437e-07
-1.09392e-06
2.45267e-07
-1.14122e-06
2.35017e-07
-1.14281e-06
1.98843e-07
-1.12465e-06
1.34806e-07
-1.10123e-06
6.07085e-08
-1.06363e-06
-7.01681e-09
-1.00297e-06
-7.10338e-08
-9.20871e-07
-1.3096e-07
-8.22641e-07
-1.78493e-07
-7.11812e-07
-2.1391e-07
-5.90885e-07
-2.41951e-07
-4.64069e-07
-2.62172e-07
-3.33064e-07
-2.76656e-07
-1.95888e-07
-2.88891e-07
-5.56223e-08
-2.93083e-07
7.9161e-08
-2.83174e-07
2.03202e-07
-2.62902e-07
3.13558e-07
-2.34846e-07
4.09128e-07
-2.02481e-07
4.86122e-07
-1.62208e-07
5.39418e-07
-1.12242e-07
5.64495e-07
-5.38965e-08
5.58345e-07
9.22913e-09
5.19957e-07
7.26842e-08
4.50192e-07
1.32604e-07
3.51293e-07
1.85295e-07
2.27682e-07
2.27645e-07
8.59618e-08
2.57949e-07
-6.69413e-08
2.76531e-07
-2.26183e-07
2.86028e-07
-3.88363e-07
2.89557e-07
-5.49716e-07
2.88556e-07
-7.06359e-07
2.84228e-07
-8.5586e-07
2.78367e-07
-9.98058e-07
2.73443e-07
-1.13318e-06
2.70034e-07
-1.25982e-06
2.6493e-07
-1.37708e-06
2.55053e-07
-1.48608e-06
2.39758e-07
-1.58648e-06
2.17686e-07
-1.6756e-06
1.87687e-07
-1.74966e-06
1.5137e-07
-1.80236e-06
1.07669e-07
-1.82752e-06
5.50239e-08
-1.82097e-06
-6.05613e-09
-1.78222e-06
-7.33811e-08
-1.70732e-06
-1.51289e-07
-1.58758e-06
-2.42008e-07
-1.41831e-06
-3.37772e-07
-1.20651e-06
-4.22036e-07
-9.66736e-07
-4.81361e-07
-7.09199e-07
-5.11727e-07
-4.39508e-07
-5.19647e-07
-1.68687e-07
-5.03255e-07
8.93702e-08
-4.64954e-07
3.22121e-07
-4.12823e-07
5.2254e-07
-3.58481e-07
6.87199e-07
-3.07786e-07
8.17563e-07
-2.67906e-07
9.31824e-07
-2.54409e-07
1.06344e-06
-2.81382e-07
1.21233e-06
-2.97055e-07
1.35942e-06
-2.61934e-07
1.5112e-06
-2.09004e-07
1.65517e-06
-2.05832e-07
1.74021e-06
-1.94784e-07
1.79879e-06
-1.221e-07
1.92041e-06
-1.08416e-07
2.08162e-06
-1.78447e-07
2.13644e-06
-1.40173e-07
2.0377e-06
3.99584e-08
1.91041e-06
1.35406e-07
1.85418e-06
5.74782e-08
1.89013e-06
-5.18464e-08
1.96269e-06
-9.33538e-08
1.93085e-06
2.72077e-08
1.72903e-06
2.9999e-07
1.73544e-06
2.38362e-07
1.63674e-06
1.31091e-07
8.35367e-07
6.14726e-07
-2.87792e-07
1.2241e-06
-1.26523e-06
1.48535e-06
-2.10339e-06
1.54714e-06
-2.88543e-06
1.52589e-06
-3.62449e-06
1.50771e-06
-4.33359e-06
1.49994e-06
-5.01681e-06
1.5122e-06
-5.6829e-06
1.52225e-06
-6.33519e-06
1.52943e-06
-6.97115e-06
1.51677e-06
-7.58382e-06
1.47568e-06
-8.16188e-06
1.39528e-06
-8.68727e-06
1.26866e-06
-9.13643e-06
1.08685e-06
-9.48293e-06
8.45844e-07
-9.70197e-06
5.48989e-07
-9.77444e-06
2.12246e-07
-9.68621e-06
-1.39913e-07
-9.43043e-06
-4.79209e-07
-9.02454e-06
-7.75879e-07
-8.50303e-06
-1.00773e-06
-7.90281e-06
-1.1669e-06
-7.26012e-06
-1.25739e-06
-6.60184e-06
-1.29405e-06
-5.94642e-06
-1.29379e-06
-5.3041e-06
-1.27158e-06
-4.67963e-06
-1.23902e-06
-4.07356e-06
-1.20402e-06
-3.48438e-06
-1.17117e-06
-2.90913e-06
-1.14314e-06
-2.34386e-06
-1.12171e-06
-1.78418e-06
-1.10895e-06
-1.22761e-06
-1.1056e-06
-6.79681e-07
-1.0981e-06
-1.85611e-07
-1.01472e-06
1.82672e-07
-6.25692e-07
8.91806e-07
-1.20967e-06
1.74973e-06
-1.62829e-06
2.3437e-06
-1.22901e-06
2.57797e-06
-4.62152e-07
2.39306e-06
1.58586e-07
2.04197e-06
5.02703e-07
2.26834e-06
1.10346e-07
2.20721e-06
4.91929e-08
2.05425e-07
1.78127e-06
-3.62153e-06
4.76168e-06
-7.30752e-06
6.83389e-06
-9.71791e-06
6.48871e-06
-1.12437e-05
4.74864e-06
-1.23086e-05
3.26161e-06
-1.30067e-05
2.06795e-06
-1.3413e-05
1.15365e-06
-1.35537e-05
4.32617e-07
-1.34511e-05
-1.6329e-07
-1.31064e-05
-6.78934e-07
-1.25384e-05
-1.13405e-06
-1.17557e-05
-1.56923e-06
-1.07489e-05
-2.0152e-06
-9.52146e-06
-2.44832e-06
-8.12162e-06
-2.77828e-06
-6.65462e-06
-2.90815e-06
-5.23266e-06
-2.8259e-06
-3.93573e-06
-2.59341e-06
-2.8054e-06
-2.27932e-06
-1.84988e-06
-1.94701e-06
-1.05585e-06
-1.63708e-06
-3.96485e-07
-1.37531e-06
1.58633e-07
-1.16784e-06
6.41414e-07
-1.01493e-06
1.0796e-06
-9.11936e-07
1.4904e-06
-8.48237e-07
1.88443e-06
-8.10677e-07
2.26831e-06
-7.87698e-07
2.6481e-06
-7.77482e-07
3.03061e-06
-7.79907e-07
3.42198e-06
-7.95188e-07
3.8282e-06
-8.20874e-07
4.25347e-06
-8.53814e-07
4.69928e-06
-8.8841e-07
5.16151e-06
-9.16743e-07
5.62976e-06
-9.17076e-07
6.08424e-06
-8.8492e-07
6.5086e-06
-8.18969e-07
6.89251e-06
-7.4802e-07
7.25123e-06
-6.80971e-07
7.58182e-06
-6.40852e-07
7.88661e-06
-5.8726e-07
8.17206e-06
-5.59054e-07
8.3941e-06
-3.37964e-07
-9.00776e-09
8.52125e-06
-1.52541e-07
1.45736e-07
-3.06349e-07
2.0756e-07
-4.35091e-07
2.24054e-07
-5.40686e-07
2.20912e-07
-6.32353e-07
2.1615e-07
-7.20953e-07
2.26788e-07
-8.07675e-07
2.49693e-07
-8.85171e-07
2.70499e-07
-9.45691e-07
2.80504e-07
-9.85861e-07
2.78606e-07
-1.00381e-06
2.63217e-07
-9.97956e-07
2.29163e-07
-9.71422e-07
1.72308e-07
-9.33219e-07
9.66031e-08
-8.84413e-07
1.19027e-08
-8.14825e-07
-7.66053e-08
-7.22866e-07
-1.62992e-07
-6.24216e-07
-2.2961e-07
-5.31565e-07
-2.71144e-07
-4.38547e-07
-3.06928e-07
-3.3887e-07
-3.41629e-07
-2.39774e-07
-3.61267e-07
-1.43411e-07
-3.7302e-07
-3.87981e-08
-3.93504e-07
7.29004e-08
-4.04782e-07
1.79144e-07
-3.89417e-07
2.77794e-07
-3.61551e-07
3.73309e-07
-3.30362e-07
4.63954e-07
-2.93125e-07
5.39402e-07
-2.37656e-07
5.88448e-07
-1.61288e-07
6.02614e-07
-6.80623e-08
5.77225e-07
3.4618e-08
5.12203e-07
1.37706e-07
4.1096e-07
2.33847e-07
2.78517e-07
3.17738e-07
1.20626e-07
3.85536e-07
-5.62909e-08
4.34866e-07
-2.44938e-07
4.65178e-07
-4.38358e-07
4.79448e-07
-6.3025e-07
4.81448e-07
-8.14805e-07
4.73111e-07
-9.884e-07
4.57824e-07
-1.15124e-06
4.41205e-07
-1.3043e-06
4.26504e-07
-1.44661e-06
4.12344e-07
-1.57777e-06
3.96088e-07
-1.70071e-06
3.77988e-07
-1.81833e-06
3.57378e-07
-1.9309e-06
3.30262e-07
-2.03796e-06
2.94747e-07
-2.13624e-06
2.49646e-07
-2.21782e-06
1.89252e-07
-2.27476e-06
1.11963e-07
-2.30308e-06
2.22674e-08
-2.29601e-06
-8.04529e-08
-2.23615e-06
-2.1115e-07
-2.11337e-06
-3.64787e-07
-1.92683e-06
-5.24313e-07
-1.684e-06
-6.64871e-07
-1.40348e-06
-7.61877e-07
-1.10267e-06
-8.12539e-07
-8.02028e-07
-8.20289e-07
-5.17664e-07
-7.87619e-07
-2.57315e-07
-7.25302e-07
-2.27786e-08
-6.4736e-07
1.81609e-07
-5.62869e-07
3.54554e-07
-4.80731e-07
5.06857e-07
-4.2021e-07
6.45705e-07
-3.93257e-07
7.74894e-07
-4.10572e-07
9.24135e-07
-4.46295e-07
1.09341e-06
-4.31209e-07
1.23822e-06
-3.53812e-07
1.36786e-06
-3.35472e-07
1.5199e-06
-3.4682e-07
1.69888e-06
-3.01089e-07
1.82066e-06
-2.30193e-07
1.78989e-06
-1.47678e-07
1.65411e-06
-4.39195e-09
1.57689e-06
1.17185e-07
1.64818e-06
6.41066e-08
1.80257e-06
-9.69099e-08
1.99475e-06
-2.44026e-07
2.1132e-06
-2.11802e-07
2.0818e-06
5.8613e-08
2.04915e-06
3.32632e-07
1.79987e-06
4.87642e-07
8.53578e-07
1.07739e-06
-4.39459e-07
1.90776e-06
-1.47026e-06
2.25489e-06
-2.22309e-06
2.23818e-06
-2.83919e-06
2.16323e-06
-3.39872e-06
2.08542e-06
-3.93361e-06
2.04261e-06
-4.45921e-06
2.02554e-06
-4.98361e-06
2.0366e-06
-5.52241e-06
2.06105e-06
-6.0864e-06
2.09342e-06
-6.68042e-06
2.11079e-06
-7.30042e-06
2.09568e-06
-7.93223e-06
2.0271e-06
-8.547e-06
1.88342e-06
-9.10129e-06
1.64114e-06
-9.543e-06
1.28756e-06
-9.82448e-06
8.30464e-07
-9.91357e-06
3.01339e-07
-9.80131e-06
-2.52179e-07
-9.5046e-06
-7.75918e-07
-9.05427e-06
-1.2262e-06
-8.48877e-06
-1.57324e-06
-7.85152e-06
-1.80415e-06
-7.1817e-06
-1.92721e-06
-6.50725e-06
-1.9685e-06
-5.84364e-06
-1.9574e-06
-5.19827e-06
-1.91695e-06
-4.57332e-06
-1.86396e-06
-3.96809e-06
-1.80926e-06
-3.38063e-06
-1.75862e-06
-2.80822e-06
-1.71556e-06
-2.2478e-06
-1.68213e-06
-1.69778e-06
-1.65898e-06
-1.15865e-06
-1.64473e-06
-6.25128e-07
-1.63163e-06
-8.92427e-08
-1.55061e-06
4.61024e-07
-1.17596e-06
1.24275e-06
-1.9914e-06
2.0916e-06
-2.47714e-06
2.7081e-06
-1.8455e-06
2.89395e-06
-6.48001e-07
2.52723e-06
5.25304e-07
2.23763e-06
7.92295e-07
1.94875e-06
3.99226e-07
2.39413e-07
1.75853e-06
-3.01896e-06
5.03965e-06
-6.41534e-06
8.15805e-06
-8.60119e-06
9.01973e-06
-9.63917e-06
7.5267e-06
-1.05063e-05
5.61581e-06
-1.13393e-05
4.09453e-06
-1.20057e-05
2.73443e-06
-1.2441e-05
1.58888e-06
-1.26149e-05
6.06575e-07
-1.25443e-05
-2.33942e-07
-1.22488e-05
-9.74447e-07
-1.17483e-05
-1.63454e-06
-1.10443e-05
-2.27321e-06
-1.01159e-05
-2.94357e-06
-8.94196e-06
-3.62227e-06
-7.55125e-06
-4.169e-06
-6.04544e-06
-4.41396e-06
-4.55643e-06
-4.31491e-06
-3.18496e-06
-3.96488e-06
-1.98913e-06
-3.47515e-06
-9.88819e-07
-2.94732e-06
-1.8323e-07
-2.44267e-06
4.45342e-07
-2.00388e-06
9.38641e-07
-1.66114e-06
1.34788e-06
-1.42417e-06
1.71258e-06
-1.27663e-06
2.0551e-06
-1.19077e-06
2.38604e-06
-1.14162e-06
2.71042e-06
-1.11207e-06
3.03215e-06
-1.09921e-06
3.35717e-06
-1.10493e-06
3.69164e-06
-1.12966e-06
4.04167e-06
-1.17091e-06
4.41333e-06
-1.22547e-06
4.81227e-06
-1.28736e-06
5.23762e-06
-1.34209e-06
5.67931e-06
-1.35877e-06
6.11433e-06
-1.31994e-06
6.52564e-06
-1.23028e-06
6.89921e-06
-1.12158e-06
7.24639e-06
-1.02816e-06
7.56968e-06
-9.64144e-07
7.88244e-06
-9.00014e-07
8.15211e-06
-8.28722e-07
8.44687e-06
-6.32731e-07
-2.6094e-07
8.69881e-06
-1.45558e-07
2.91295e-07
-2.95173e-07
3.57174e-07
-4.29941e-07
3.58821e-07
-5.56019e-07
3.46991e-07
-6.70505e-07
3.30636e-07
-7.62633e-07
3.18916e-07
-8.2071e-07
3.0777e-07
-8.44093e-07
2.93882e-07
-8.41971e-07
2.78382e-07
-8.23591e-07
2.60227e-07
-7.93516e-07
2.33142e-07
-7.54766e-07
1.90413e-07
-7.11447e-07
1.28988e-07
-6.63631e-07
4.87877e-08
-6.05756e-07
-4.5972e-08
-5.36433e-07
-1.45928e-07
-4.66864e-07
-2.32561e-07
-4.11077e-07
-2.85397e-07
-3.57255e-07
-3.24966e-07
-2.80534e-07
-3.83649e-07
-1.87273e-07
-4.34889e-07
-9.8165e-08
-4.50375e-07
-2.16009e-08
-4.49584e-07
5.57349e-08
-4.7084e-07
1.39718e-07
-4.88765e-07
2.28357e-07
-4.78056e-07
3.30461e-07
-4.63656e-07
4.49197e-07
-4.49098e-07
5.63327e-07
-4.07255e-07
6.49024e-07
-3.23354e-07
6.91049e-07
-2.03313e-07
6.82579e-07
-5.95919e-08
6.24049e-07
9.31475e-08
5.20793e-07
2.40962e-07
3.7871e-07
3.7593e-07
2.04692e-07
4.91756e-07
7.1871e-09
5.83041e-07
-2.04724e-07
6.46777e-07
-4.22908e-07
6.83362e-07
-6.41776e-07
6.98315e-07
-8.60173e-07
6.99846e-07
-1.07649e-06
6.89431e-07
-1.28029e-06
6.61624e-07
-1.45878e-06
6.1969e-07
-1.61059e-06
5.78315e-07
-1.7484e-06
5.50152e-07
-1.88829e-06
5.3598e-07
-2.03782e-06
5.27524e-07
-2.19652e-06
5.16078e-07
-2.36533e-06
4.99065e-07
-2.54031e-06
4.69732e-07
-2.7046e-06
4.13933e-07
-2.84322e-06
3.27872e-07
-2.94589e-06
2.14637e-07
-2.99353e-06
6.99035e-08
-2.96318e-06
-1.10801e-07
-2.84857e-06
-3.25758e-07
-2.65618e-06
-5.57183e-07
-2.39701e-06
-7.83477e-07
-2.09023e-06
-9.71651e-07
-1.75851e-06
-1.0936e-06
-1.42797e-06
-1.14308e-06
-1.12404e-06
-1.12421e-06
-8.53472e-07
-1.05819e-06
-6.09334e-07
-9.69441e-07
-3.89534e-07
-8.67159e-07
-2.00907e-07
-7.51496e-07
-4.10443e-08
-6.40593e-07
1.04513e-07
-5.65768e-07
2.32565e-07
-5.21309e-07
3.12836e-07
-4.90842e-07
3.85451e-07
-5.18911e-07
5.18209e-07
-5.63967e-07
6.75727e-07
-5.1133e-07
7.85036e-07
-4.4478e-07
8.46603e-07
-4.08388e-07
9.02388e-07
-3.56874e-07
9.51698e-07
-2.79503e-07
1.00503e-06
-2.01008e-07
1.12525e-06
-1.2461e-07
1.36422e-06
-1.21793e-07
1.65755e-06
-2.29224e-07
1.94459e-06
-3.83948e-07
2.20869e-06
-5.08121e-07
2.37451e-06
-3.7762e-07
2.37826e-06
5.48571e-08
2.08743e-06
6.23464e-07
1.17334e-06
1.40173e-06
-1.43605e-07
2.39433e-06
-1.19776e-06
2.96192e-06
-1.85944e-06
2.91658e-06
-2.36527e-06
2.74402e-06
-2.80409e-06
2.60205e-06
-3.22801e-06
2.50934e-06
-3.66253e-06
2.47712e-06
-4.12354e-06
2.48655e-06
-4.6224e-06
2.53546e-06
-5.17487e-06
2.61352e-06
-5.79001e-06
2.70857e-06
-6.46962e-06
2.7904e-06
-7.20329e-06
2.82935e-06
-7.96285e-06
2.78665e-06
-8.69368e-06
2.61426e-06
-9.32207e-06
2.26952e-06
-9.77993e-06
1.74542e-06
-1.00252e-05
1.07578e-06
-1.00453e-05
3.21353e-07
-9.85228e-06
-4.45147e-07
-9.47531e-06
-1.1529e-06
-8.95314e-06
-1.74837e-06
-8.33014e-06
-2.19624e-06
-7.65471e-06
-2.47957e-06
-6.97188e-06
-2.61003e-06
-6.30934e-06
-2.63104e-06
-5.67457e-06
-2.59218e-06
-5.06488e-06
-2.52664e-06
-4.47419e-06
-2.45466e-06
-3.89601e-06
-2.38743e-06
-3.32636e-06