/*--------------------------------*- C++ -*----------------------------------*\
  =========                 |
  \\      /  F ield         | OpenFOAM: The Open Source CFD Toolbox
   \\    /   O peration     | Website:  https://openfoam.org
    \\  /    A nd           | Version:  6
     \\/     M anipulation  |
\*---------------------------------------------------------------------------*/
FoamFile
{
    version     2.0;
    format      ascii;
    class       volScalarField;
    location    "0.15";
    object      pMean;
}
// * * * * * * * * * * * * * * * * * * * * * * * * * * * * * * * * * * * * * //

dimensions      [0 2 -2 0 0 0 0];

internalField   nonuniform List<scalar> 
12225
(
4.55587
3.97987
3.56825
3.34726
3.22393
3.12714
3.03231
2.94024
2.85725
2.78683
2.7299
2.68536
2.6528
2.62785
2.60608
2.56254
2.46763
2.20423
4.41987
3.9413
3.55196
3.33212
3.20845
3.1129
3.0196
2.92849
2.84565
2.77502
2.71707
2.67138
2.63572
2.60794
2.57856
2.53292
2.43245
2.24555
4.29044
3.90962
3.55209
3.33078
3.20289
3.10678
3.0143
2.92329
2.83962
2.76722
2.70694
2.65747
2.61682
2.58072
2.54149
2.48409
2.38708
2.23627
4.17691
3.87526
3.55174
3.32861
3.19401
3.09598
3.00407
2.91325
2.82851
2.75407
2.69078
2.63709
2.59032
2.54565
2.49588
2.42897
2.33308
2.19697
4.07389
3.83323
3.54414
3.32281
3.18207
3.08185
2.9908
2.90071
2.81529
2.73884
2.67242
2.61432
2.56135
2.50876
2.45001
2.37658
2.28017
2.15448
3.97365
3.7826
3.52754
3.31335
3.16888
3.06649
2.97613
2.88694
2.80101
2.72248
2.65267
2.58989
2.53083
2.47096
2.40482
2.32617
2.22925
2.11086
3.87833
3.72633
3.50263
3.2998
3.15416
3.04934
2.95888
2.87028
2.78379
2.7031
2.62969
2.56211
2.49713
2.43066
2.35819
2.2751
2.17747
2.06358
3.80287
3.67171
3.4741
3.28482
3.14012
3.03263
2.94096
2.85226
2.76502
2.68206
2.60495
2.53254
2.46191
2.38945
2.31142
2.22434
2.1255
2.01355
3.73868
3.61775
3.44112
3.26611
3.12439
3.01473
2.92122
2.83186
2.74374
2.65862
2.57795
2.50092
2.42505
2.34721
2.26431
2.17368
2.07324
1.96181
3.66918
3.56043
3.40164
3.24063
3.10371
2.99306
2.89774
2.80747
2.71845
2.63141
2.54748
2.46618
2.3855
2.30282
2.2156
2.12173
2.01959
1.90826
3.60032
3.50337
3.36054
3.21269
3.08167
2.9712
2.87426
2.78264
2.69239
2.60336
2.51631
2.43098
2.34581
2.2587
2.16752
2.07062
1.96668
1.85507
3.53509
3.45051
3.32068
3.18356
3.05831
2.94894
2.85089
2.75788
2.66629
2.57548
2.48585
2.39721
2.30838
2.21766
2.12333
2.02402
1.91871
1.80689
3.47383
3.39936
3.28013
3.15219
3.03248
2.92468
2.82586
2.73142
2.63836
2.54579
2.45379
2.36219
2.27011
2.17623
2.07917
1.97786
1.87148
1.75971
3.41922
3.34677
3.23573
3.11622
3.00201
2.8961
2.79664
2.70057
2.60567
2.51105
2.41651
2.32188
2.22652
2.12949
2.02975
1.92652
1.81916
1.7075
3.35928
3.28871
3.18492
3.07318
2.96442
2.86091
2.76131
2.66368
2.5667
2.46974
2.37258
2.27499
2.17656
2.07665
1.97456
1.86974
1.76182
1.65066
3.28728
3.22388
3.12733
3.0225
2.91894
2.81804
2.71878
2.62011
2.52142
2.42243
2.32296
2.22288
2.1219
2.01967
1.91578
1.80993
1.7019
1.59173
3.21659
3.1595
3.06842
2.96858
2.86914
2.7705
2.67152
2.57171
2.47115
2.36996
2.26819
2.16581
2.06269
1.95868
1.85359
1.74735
1.63987
1.53127
3.16576
3.10729
3.01746
2.91981
2.82193
2.72359
2.62376
2.52233
2.41973
2.31636
2.21247
2.10818
2.00352
1.89847
1.793
1.68719
1.58104
1.47468
3.13747
3.07462
2.98166
2.88207
2.78245
2.68221
2.58034
2.47686
2.37224
2.26695
2.16136
2.05573
1.95023
1.84494
1.73994
1.63532
1.53118
1.42771
3.12756
3.06435
2.96833
2.86405
2.75979
2.65582
2.55125
2.44577
2.3395
2.23276
2.12599
2.01961
1.91388
1.80892
1.70479
1.60158
1.49938
1.39832
3.13793
3.07496
2.9747
2.86393
2.75361
2.64551
2.53863
2.43177
2.3243
2.21631
2.10842
2.00126
1.8952
1.79035
1.68676
1.58446
1.48353
1.38409
3.17291
3.10418
2.99431
2.8733
2.75508
2.64249
2.53346
2.42516
2.31617
2.20669
2.09766
1.98989
1.88372
1.77917
1.67617
1.57472
1.47488
1.37677
3.23076
3.14908
3.02373
2.88855
2.76086
2.64398
2.53346
2.42409
2.31368
2.20272
2.09259
1.98422
1.87786
1.7734
1.67071
1.5698
1.47074
1.37364
3.29808
3.20157
3.05739
2.90549
2.76867
2.64899
2.53769
2.42703
2.31474
2.2021
2.09093
1.98213
1.87572
1.77143
1.66905
1.5686
1.47014
1.3738
3.3594
3.25212
3.08678
2.91798
2.77469
2.65429
2.54264
2.43049
2.31634
2.20237
2.09057
1.98159
1.8752
1.77101
1.66882
1.56866
1.47064
1.37491
3.42653
3.30065
3.10794
2.9246
2.77954
2.66064
2.54867
2.43454
2.3184
2.20323
2.09096
1.98189
1.87556
1.77152
1.66959
1.56979
1.47221
1.37689
3.5232
3.3501
3.12035
2.9267
2.78449
2.66829
2.55564
2.43936
2.32147
2.20539
2.09274
1.98345
1.87691
1.7727
1.6707
1.57097
1.47359
1.37863
3.65324
3.39907
3.1258
2.92612
2.78917
2.6758
2.56251
2.44472
2.32593
2.20968
2.09717
1.98805
1.88163
1.77755
1.67575
1.57636
1.47936
1.38433
3.78901
3.43973
3.1252
2.92156
2.78842
2.67618
2.56168
2.44247
2.323
2.20666
2.09426
1.98528
1.87895
1.77497
1.67328
1.57417
1.47774
1.38451
3.92007
3.48111
3.14077
2.93407
2.8014
2.68836
2.57222
2.45157
2.33114
2.21422
2.10141
1.99207
1.8854
1.78116
1.67922
1.58001
1.48338
1.39006
-1.44423
-1.47336
-1.50165
-1.50585
-1.4799
-1.44179
-1.43284
-1.49314
-1.64574
-1.89296
-2.21839
-2.59202
-2.97816
-3.34423
-3.66608
-3.92841
-4.12315
-4.24839
-4.3076
-4.30858
-4.26263
-4.18341
-4.08492
-3.97999
-3.88124
-3.80148
-3.75054
-3.73385
-3.73704
-3.74149
-3.75033
-3.78806
-3.88079
-4.03178
-4.22515
-4.44288
-4.66856
-4.89084
-5.11945
-5.37612
-5.6678
-5.98393
-6.29969
-6.5856
-6.82931
-7.03782
-7.21335
-7.32812
-7.37312
-7.4126
-7.49867
-7.6182
-7.73971
-7.83911
-7.92964
-8.05368
-8.23829
-8.48823
-8.78476
-9.11163
-9.46493
-9.83297
-10.2054
-10.5725
-10.9185
-11.2202
-11.4593
-11.6259
-11.7173
-11.7342
-11.6685
-11.5084
-11.283
-11.0514
-10.8387
-10.6437
-10.4697
-10.3487
-10.3021
-10.3264
-10.3939
-10.4707
-10.5464
-10.6152
-10.665
-10.6796
-10.6434
-10.5471
-10.3806
-10.126
-9.78683
-9.38567
-8.91492
-8.3867
-7.86058
-7.33872
-6.78362
-6.16598
-5.46922
-4.68793
-3.8179
-2.84385
-1.76499
-0.605071
0.60852
1.85842
3.02268
3.96893
4.70734
5.26871
5.6671
5.93374
6.10746
6.22758
6.33141
6.45449
6.62876
6.87765
7.20876
7.60959
8.04584
8.49184
8.93919
9.28707
9.41186
9.36356
9.25182
9.1428
9.09107
9.15349
9.37589
9.74784
10.24
10.8082
11.2658
11.5122
11.6599
11.7985
11.9929
12.3048
12.7567
13.3416
14.0393
14.8276
15.6882
16.6078
17.575
18.5761
19.589
20.5789
21.5016
22.3104
22.9634
23.4322
23.708
23.8022
23.7403
23.5553
23.2817
22.9525
22.5956
22.2315
21.8736
21.5302
21.2051
20.8966
20.6
20.3132
20.0417
19.7954
19.5803
19.3946
19.2355
19.1048
19.0081
18.9485
18.9342
18.9672
19.0616
19.1998
-1.62586
-1.66281
-1.71263
-1.75494
-1.78503
-1.82226
-1.89922
-2.04371
-2.26713
-2.56236
-2.90821
-3.27678
-3.63991
-3.97383
-4.26106
-4.48948
-4.65193
-4.74737
-4.78
-4.75769
-4.69039
-4.59139
-4.47619
-4.36008
-4.25651
-4.17554
-4.1191
-4.09465
-4.1008
-4.11911
-4.16828
-4.27186
-4.42596
-4.61846
-4.83534
-5.06526
-5.30092
-5.53089
-5.7564
-6.00207
-6.27203
-6.54836
-6.82375
-7.08355
-7.31401
-7.51649
-7.71176
-7.87629
-7.96705
-8.04187
-8.13892
-8.23976
-8.34138
-8.43047
-8.5292
-8.67119
-8.86832
-9.12171
-9.40936
-9.72317
-10.064
-10.4195
-10.7741
-11.1181
-11.4376
-11.7129
-11.9285
-12.0772
-12.1568
-12.1617
-12.0922
-11.938
-11.7248
-11.5122
-11.3349
-11.1924
-11.0584
-10.9694
-10.9497
-10.9843
-11.0456
-11.1033
-11.1491
-11.1788
-11.1884
-11.1656
-11.098
-10.972
-10.7801
-10.517
-10.1823
-9.79097
-9.35186
-8.88295
-8.40861
-7.90542
-7.34439
-6.70408
-5.97599
-5.15847
-4.24734
-3.23445
-2.12856
-0.95232
0.258747
1.46065
2.53895
3.4146
4.13028
4.69945
5.12742
5.43564
5.65399
5.8152
5.95541
6.11092
6.31479
6.59038
6.94568
7.36831
7.83169
8.27812
8.67571
8.96525
9.07188
9.05074
8.97381
8.89173
8.85547
8.92788
9.15897
9.54803
10.0288
10.5202
10.882
11.0898
11.2543
11.427
11.6687
12.0268
12.5167
13.1305
13.8499
14.654
15.5256
16.4519
17.4236
18.4284
19.4455
20.4411
21.3707
22.1871
22.848
23.3241
23.6062
23.7059
23.6498
23.4716
23.2046
22.8802
22.5267
22.1641
21.8049
21.4585
21.13
20.8188
20.5215
20.2376
19.9727
19.7335
19.524
19.3409
19.1831
19.053
18.956
18.8929
18.8739
18.8942
18.9675
19.046
-1.74399
-1.78376
-1.87178
-2.00271
-2.16961
-2.37476
-2.62379
-2.91843
-3.25293
-3.61358
-3.98037
-4.33307
-4.65601
-4.93785
-5.17012
-5.34649
-5.46326
-5.52157
-5.52538
-5.48063
-5.39549
-5.28113
-5.15135
-5.01991
-4.89991
-4.80301
-4.73261
-4.69108
-4.68836
-4.73007
-4.82627
-4.97476
-5.16164
-5.38385
-5.62846
-5.87769
-6.12416
-6.36798
-6.61146
-6.8615
-7.11459
-7.35577
-7.58712
-7.81686
-8.05408
-8.28587
-8.49451
-8.68139
-8.83619
-8.96786
-9.0819
-9.1776
-9.26254
-9.35527
-9.48046
-9.64908
-9.85955
-10.1097
-10.3914
-10.6942
-11.011
-11.3366
-11.6591
-11.9656
-12.2401
-12.468
-12.6397
-12.7536
-12.8119
-12.8159
-12.7617
-12.6485
-12.5022
-12.3546
-12.2175
-12.1007
-12.0051
-11.9564
-11.9558
-11.9763
-12.0022
-12.0223
-12.0296
-12.0174
-11.9825
-11.9186
-11.8164
-11.6658
-11.4581
-11.1943
-10.8783
-10.5249
-10.1562
-9.77513
-9.3562
-8.86725
-8.28852
-7.60921
-6.83043
-5.95493
-4.98111
-3.90808
-2.7596
-1.57127
-0.388572
0.720335
1.69546
2.52674
3.23568
3.82452
4.30018
4.67216
4.9573
5.17953
5.37264
5.5751
5.82254
6.13724
6.52527
6.97395
7.438
7.85378
8.18637
8.41489
8.52727
8.55152
8.51814
8.46148
8.43826
8.52401
8.7685
9.15157
9.57395
9.92869
10.1794
10.3737
10.5694
10.8007
11.1158
11.5406
12.0843
12.7396
13.4912
14.3199
15.2097
16.1491
17.1303
18.1435
19.1704
20.1789
21.1244
21.9577
22.6353
23.1268
23.4219
23.5314
23.4825
23.3108
23.0517
22.7367
22.3919
22.0345
21.6767
21.3294
20.9989
20.6862
20.3907
20.1136
19.8581
19.6274
19.4242
19.2468
19.0943
18.9668
18.8694
18.8019
18.7743
18.7763
18.8135
18.8233
-1.85891
-1.92888
-2.10427
-2.37961
-2.7262
-3.111
-3.5106
-3.9114
-4.30491
-4.68381
-5.03954
-5.36263
-5.64444
-5.87884
-6.06294
-6.19564
-6.27653
-6.30752
-6.29289
-6.23793
-6.1506
-6.04146
-5.92197
-5.80452
-5.69738
-5.60529
-5.53536
-5.49327
-5.48734
-5.52655
-5.61673
-5.75683
-5.93961
-6.15804
-6.39807
-6.64533
-6.89622
-7.15961
-7.43485
-7.70463
-7.96513
-8.21429
-8.44867
-8.68435
-8.93628
-9.19191
-9.42896
-9.64139
-9.82909
-9.98682
-10.1096
-10.2151
-10.3149
-10.4252
-10.5671
-10.7525
-10.9749
-11.2262
-11.5001
-11.7904
-12.088
-12.3847
-12.671
-12.9348
-13.159
-13.3326
-13.4537
-13.5308
-13.5714
-13.5832
-13.5638
-13.5102
-13.4297
-13.3308
-13.2211
-13.1169
-13.0381
-13.0014
-12.9966
-13.0007
-13.0039
-13.0004
-12.9835
-12.9476
-12.8891
-12.8038
-12.6869
-12.5351
-12.3388
-12.0931
-11.8093
-11.5197
-11.2338
-10.9174
-10.5296
-10.0414
-9.43661
-8.71265
-7.87703
-6.93712
-5.89641
-4.76366
-3.57739
-2.39066
-1.26082
-0.225928
0.700005
1.51852
2.23329
2.85012
3.37597
3.81167
4.16336
4.44784
4.6964
4.94831
5.23986
5.59199
6.00704
6.4603
6.89704
7.26863
7.56113
7.77069
7.89665
7.94806
7.93566
7.88361
7.86438
7.96321
8.21611
8.56375
8.88202
9.11665
9.30596
9.49853
9.72503
10.0163
10.4014
10.8924
11.4937
12.1975
12.9892
13.8498
14.7639
15.7211
16.7157
17.7407
18.7813
19.8081
20.776
21.6335
22.3349
22.849
23.1645
23.2909
23.2553
23.0941
22.8445
22.5381
22.2001
21.8492
21.4979
21.1546
20.8249
20.5127
20.2212
19.9529
19.7089
19.489
19.2943
19.1235
18.9758
18.8508
18.7536
18.6827
18.6441
18.6259
18.6256
18.5865
-2.06686
-2.21275
-2.5209
-2.93965
-3.4047
-3.87639
-4.33745
-4.77885
-5.19364
-5.57686
-5.92557
-6.23606
-6.50252
-6.71987
-6.88592
-7.00066
-7.06623
-7.08582
-7.06484
-7.01084
-6.93307
-6.84215
-6.74955
-6.66426
-6.59094
-6.53253
-6.49143
-6.46907
-6.46912
-6.49894
-6.56511
-6.67043
-6.8131
-6.98873
-7.19211
-7.41998
-7.6727
-7.95666
-8.26095
-8.56426
-8.85535
-9.14049
-9.42267
-9.70844
-9.99672
-10.2736
-10.5279
-10.7539
-10.9489
-11.1144
-11.2544
-11.3761
-11.485
-11.5988
-11.7433
-11.9277
-12.1399
-12.375
-12.6306
-12.9024
-13.1788
-13.4484
-13.6999
-13.9203
-14.095
-14.2166
-14.2897
-14.3315
-14.3583
-14.3775
-14.3799
-14.3578
-14.3083
-14.2338
-14.1476
-14.0685
-14.0158
-13.9972
-13.9994
-14.0065
-14.0082
-13.9988
-13.9734
-13.9293
-13.8649
-13.7778
-13.6693
-13.539
-13.37
-13.1552
-12.925
-12.7121
-12.4905
-12.208
-11.8263
-11.3209
-10.6798
-9.9062
-9.01157
-8.00818
-6.9067
-5.7259
-4.51775
-3.35342
-2.27693
-1.28232
-0.37153
0.447594
1.17746
1.82901
2.4046
2.89997
3.31498
3.66136
3.96728
4.27005
4.60368
4.98605
5.41177
5.84764
6.24692
6.58476
6.85891
7.0632
7.1929
7.25137
7.2393
7.17935
7.16191
7.271
7.51499
7.79393
8.00322
8.16177
8.32141
8.51596
8.77218
9.11657
9.56302
10.1163
10.7759
11.5325
12.3696
13.2675
14.2102
15.1883
16.1985
17.2369
18.2929
19.3403
20.3339
21.219
21.9476
22.4877
22.8275
22.976
22.9601
22.8167
22.5833
22.2909
21.9641
21.6221
21.2785
20.9407
20.6143
20.3044
20.0168
19.7555
19.5213
19.3128
19.129
18.9674
18.8264
18.705
18.608
18.5335
18.4838
18.4466
18.4159
18.3475
-2.44576
-2.67319
-3.07562
-3.54963
-4.04173
-4.53224
-5.01176
-5.47442
-5.9151
-6.32796
-6.70587
-7.04054
-7.32454
-7.55389
-7.72872
-7.85187
-7.92682
-7.9573
-7.94894
-7.90942
-7.84919
-7.78142
-7.71697
-7.6626
-7.62284
-7.59938
-7.59066
-7.59362
-7.60766
-7.63675
-7.68645
-7.76102
-7.86337
-7.99604
-8.16448
-8.37392
-8.62907
-8.92857
-9.25483
-9.59054
-9.92842
-10.2693
-10.6139
-10.9563
-11.2804
-11.5739
-11.837
-12.0688
-12.2654
-12.4304
-12.571
-12.6868
-12.7831
-12.8782
-12.9961
-13.1436
-13.3156
-13.5139
-13.7378
-13.9806
-14.2284
-14.4662
-14.679
-14.8532
-14.9778
-15.0486
-15.0749
-15.0805
-15.0884
-15.1052
-15.1122
-15.0977
-15.0601
-15.0097
-14.9646
-14.94
-14.9403
-14.9603
-14.9864
-15.0076
-15.0165
-15.0079
-14.9804
-14.9354
-14.8748
-14.8003
-14.7153
-14.6153
-14.4785
-14.3093
-14.15
-14.0118
-13.8348
-13.5656
-13.1722
-12.635
-11.9482
-11.12
-10.1658
-9.10352
-7.95266
-6.74138
-5.53543
-4.41208
-3.38112
-2.40728
-1.4977
-0.667648
0.0883464
0.781035
1.40794
1.96299
2.4428
2.85466
3.2221
3.57789
3.95069
4.35264
4.77145
5.17532
5.53568
5.84509
6.10123
6.29427
6.41791
6.47283
6.45241
6.38492
6.37036
6.48001
6.68689
6.87634
6.99682
7.10914
7.25367
7.45581
7.74421
8.13785
8.64128
9.25395
9.97097
10.7811
11.6659
12.6034
13.5764
14.5767
15.6028
16.6546
17.7259
18.7941
19.8139
20.7273
21.4837
22.0503
22.4154
22.5882
22.5958
22.4751
22.2631
21.9904
21.6809
21.3536
21.0221
20.6946
20.3763
20.0724
19.7886
19.5307
19.3022
19.1023
18.9288
18.7777
18.646
18.5314
18.4362
18.3582
18.2982
18.2446
18.1916
18.1047
-3.00785
-3.24212
-3.6188
-4.0579
-4.53408
-5.03154
-5.53498
-6.03317
-6.518
-6.98044
-7.40894
-7.79139
-8.11897
-8.38786
-8.59868
-8.75428
-8.85769
-8.91337
-8.92857
-8.91275
-8.87708
-8.83406
-8.7949
-8.76733
-8.75502
-8.75936
-8.77926
-8.81099
-8.8508
-8.89829
-8.95662
-9.03001
-9.12408
-9.24723
-9.41122
-9.6253
-9.89446
-10.2121
-10.5662
-10.9405
-11.3247
-11.7175
-12.1124
-12.4924
-12.8382
-13.1409
-13.4035
-13.6268
-13.8062
-13.9472
-14.0575
-14.1341
-14.1862
-14.2323
-14.2935
-14.382
-14.5
-14.651
-14.8336
-15.0375
-15.2453
-15.4385
-15.6003
-15.7187
-15.7871
-15.8063
-15.7884
-15.7584
-15.7471
-15.758
-15.7679
-15.7653
-15.7555
-15.7534
-15.7721
-15.8142
-15.8709
-15.9306
-15.9814
-16.0156
-16.0291
-16.0196
-15.9892
-15.944
-15.891
-15.8351
-15.776
-15.7027
-15.5996
-15.4879
-15.4081
-15.3381
-15.1964
-14.9332
-14.5225
-13.9492
-13.214
-12.3302
-11.3187
-10.2046
-9.01653
-7.79277
-6.60927
-5.53411
-4.53608
-3.56783
-2.64652
-1.79279
-1.00132
-0.263969
0.415779
1.03158
1.57819
2.05836
2.48907
2.89598
3.30039
3.70735
4.10321
4.46723
4.78889
5.06783
5.29884
5.47203
5.58253
5.62819
5.59892
5.5303
5.51786
5.61303
5.75804
5.85555
5.91029
5.9926
6.13072
6.34857
6.67402
7.11694
7.67545
8.34429
9.11565
9.97709
10.9079
11.884
12.8865
13.9079
14.9492
16.0134
17.0987
18.1866
19.2316
20.1722
20.9553
21.5476
21.9375
22.1353
22.1684
22.0732
21.8855
21.6355
21.3466
21.0376
20.7223
20.4096
20.1047
19.8116
19.5348
19.2811
19.0566
18.8629
18.6976
18.556
18.4342
18.3284
18.2381
18.1595
18.0919
18.0253
17.9556
17.8552
-3.5251
-3.7067
-4.01618
-4.42016
-4.89745
-5.41977
-5.96193
-6.5076
-7.04588
-7.56535
-8.05254
-8.49331
-8.87718
-9.19977
-9.46122
-9.66339
-9.809
-9.90276
-9.9514
-9.96424
-9.95298
-9.93099
-9.91113
-9.90296
-9.91148
-9.93921
-9.98682
-10.0516
-10.1281
-10.2133
-10.3086
-10.4185
-10.5503
-10.7146
-10.9238
-11.1868
-11.5043
-11.8669
-12.2652
-12.6815
-13.102
-13.5247
-13.94
-14.3274
-14.6704
-14.9652
-15.2122
-15.4052
-15.5397
-15.6267
-15.6753
-15.6826
-15.663
-15.6389
-15.6318
-15.6571
-15.7201
-15.8221
-15.958
-16.114
-16.2696
-16.4037
-16.5003
-16.5517
-16.5569
-16.5231
-16.4637
-16.4029
-16.3782
-16.3915
-16.4171
-16.4486
-16.4932
-16.5582
-16.644
-16.7429
-16.8421
-16.929
-16.9947
-17.0348
-17.047
-17.0312
-16.9933
-16.9445
-16.8972
-16.8567
-16.8162
-16.7622
-16.6919
-16.6408
-16.6401
-16.6326
-16.5258
-16.2725
-15.8502
-15.2468
-14.4687
-13.5346
-12.4727
-11.316
-10.1021
-8.87779
-7.72176
-6.68435
-5.69967
-4.72132
-3.77762
-2.89269
-2.06383
-1.28466
-0.555578
0.117187
0.727025
1.27197
1.76088
2.21081
2.63543
3.03562
3.40284
3.72989
4.01694
4.26422
4.46523
4.61299
4.70531
4.73884
4.70489
4.64202
4.62858
4.69395
4.76514
4.78046
4.7867
4.84866
4.98754
5.22958
5.59702
6.08978
6.70072
7.42074
8.24094
9.1485
10.1211
11.1323
12.1614
13.2015
14.2559
15.3311
16.4289
17.5346
18.6023
19.5674
20.3743
20.9895
21.4024
21.6246
21.6841
21.6158
21.4543
21.2286
20.9621
20.6732
20.3762
20.0808
19.7925
19.5145
19.2497
19.0033
18.7833
18.5944
18.4357
18.3024
18.1898
18.0932
18.0102
17.9352
17.8655
17.7916
17.7107
17.6008
-3.8144
-3.96638
-4.2629
-4.68454
-5.19361
-5.75116
-6.33056
-6.91574
-7.4957
-8.06016
-8.59746
-9.0937
-9.53641
-9.91849
-10.238
-10.4961
-10.6956
-10.8407
-10.9368
-10.9922
-11.0181
-11.0265
-11.0297
-11.0397
-11.066
-11.1155
-11.1905
-11.2889
-11.4054
-11.538
-11.6896
-11.8654
-12.0731
-12.3224
-12.623
-12.979
-13.3837
-13.8239
-14.2846
-14.7445
-15.1892
-15.6189
-16.0254
-16.391
-16.7055
-16.9681
-17.1748
-17.3141
-17.3847
-17.4035
-17.3795
-17.3092
-17.209
-17.1057
-17.0254
-16.9861
-16.9938
-17.0455
-17.1305
-17.2313
-17.3258
-17.3938
-17.4221
-17.4077
-17.3558
-17.2775
-17.1872
-17.1066
-17.0744
-17.0965
-17.1476
-17.2247
-17.3302
-17.459
-17.5995
-17.739
-17.8645
-17.9648
-18.034
-18.0701
-18.072
-18.0425
-17.9909
-17.9338
-17.8871
-17.8542
-17.8227
-17.7811
-17.7402
-17.7439
-17.8124
-17.8623
-17.7933
-17.5585
-17.1348
-16.5117
-15.7005
-14.7268
-13.6269
-12.4405
-11.212
-9.99003
-8.84875
-7.82545
-6.83588
-5.83972
-4.8734
-3.95959
-3.09794
-2.28348
-1.51373
-0.793756
-0.130963
0.468302
1.00476
1.48722
1.92411
2.31629
2.66191
2.96247
3.22173
3.43924
3.61014
3.73172
3.80497
3.8279
3.79627
3.74417
3.7258
3.75064
3.74758
3.69393
3.66241
3.71083
3.85778
4.13167
4.54452
5.08603
5.74454
6.50882
7.37063
8.31738
9.32563
10.3664
11.4176
12.4727
13.5381
14.6228
15.7315
16.8521
17.9388
18.9237
19.7494
20.3828
20.8153
21.0604
21.1458
21.1051
20.9708
20.771
20.5286
20.2617
19.9846
19.7074
19.4367
19.176
18.9271
18.693
18.4803
18.296
18.1427
18.0165
17.9123
17.8244
17.7495
17.6811
17.6149
17.5407
17.4557
17.3414
-3.91785
-4.09328
-4.43401
-4.89493
-5.42567
-5.99496
-6.58763
-7.19345
-7.80202
-8.40246
-8.98341
-9.53207
-10.0362
-10.4864
-10.8774
-11.2071
-11.4761
-11.6876
-11.8467
-11.9615
-12.0417
-12.0974
-12.1398
-12.1811
-12.2341
-12.3087
-12.4102
-12.5389
-12.6935
-12.8758
-13.0922
-13.3503
-13.6563
-14.0151
-14.4295
-14.8945
-15.3964
-15.9173
-16.4365
-16.932
-17.3899
-17.8115
-18.1946
-18.5262
-18.8007
-19.0187
-19.1723
-19.2497
-19.2543
-19.2068
-19.1151
-18.9739
-18.7997
-18.6215
-18.4687
-18.3626
-18.3107
-18.3074
-18.3363
-18.3768
-18.4077
-18.4116
-18.3797
-18.314
-18.2223
-18.1162
-18.0099
-17.9243
-17.894
-17.9274
-18.0048
-18.1237
-18.2796
-18.4568
-18.6358
-18.8005
-18.9383
-19.0395
-19.0998
-19.1194
-19.1003
-19.0487
-18.978
-18.9075
-18.8544
-18.82
-18.7893
-18.7552
-18.7374
-18.7848
-18.9091
-19.01
-18.9786
-18.7672
-18.3502
-17.7178
-16.8868
-15.8899
-14.7696
-13.5701
-12.3387
-11.1189
-9.97455
-8.94051
-7.93368
-6.92015
-5.93673
-4.99942
-4.10953
-3.26531
-2.46477
-1.71076
-1.0096
-0.370411
0.201446
0.708492
1.15613
1.54635
1.88098
2.16473
2.40232
2.59454
2.74032
2.84092
2.89985
2.91819
2.89664
2.85817
2.8321
2.81282
2.74195
2.6315
2.57044
2.61266
2.77562
3.08666
3.5453
4.13151
4.83019
5.63012
6.52499
7.50259
8.53848
9.60154
10.6682
11.7335
12.8071
13.8997
15.0177
16.1499
17.2503
18.2486
19.0861
19.7317
20.1796
20.4448
20.5546
20.5411
20.4346
20.2621
20.0456
19.8028
19.5473
19.2892
19.0361
18.7927
18.5615
18.3439
18.1434
17.9665
17.8186
17.6987
17.602
17.5224
17.4556
17.3948
17.3349
17.2652
17.1824
17.0698
-3.99604
-4.20311
-4.57186
-5.03586
-5.56184
-6.13226
-6.73478
-7.35876
-7.99398
-8.62919
-9.25244
-9.85157
-10.4155
-10.9352
-11.4037
-11.8161
-12.1695
-12.4643
-12.7039
-12.8952
-13.0465
-13.1662
-13.2649
-13.3551
-13.4502
-13.5619
-13.6981
-13.8624
-14.0571
-14.2887
-14.5679
-14.9043
-15.3024
-15.7618
-16.2753
-16.8275
-17.3997
-17.9728
-18.5263
-19.0416
-19.503
-19.9089
-20.2628
-20.5578
-20.792
-20.9669
-21.0741
-21.1031
-21.0585
-20.9602
-20.8142
-20.6132
-20.3743
-20.1296
-19.9108
-19.7416
-19.6308
-19.5711
-19.5436
-19.5273
-19.5021
-19.4526
-19.3734
-19.2702
-19.1526
-19.0308
-18.9176
-18.8337
-18.8096
-18.8524
-18.9514
-19.1047
-19.3006
-19.5157
-19.7244
-19.9059
-20.0465
-20.1378
-20.1776
-20.1686
-20.1174
-20.0356
-19.9397
-19.8499
-19.7831
-19.7394
-19.7043
-19.676
-19.6753
-19.7543
-19.9209
-20.0632
-20.0618
-19.8688
-19.4611
-18.8298
-17.9948
-16.9931
-15.8709
-14.6755
-13.4543
-12.2419
-11.0899
-10.0353
-9.00642
-7.97603
-6.97716
-6.01813
-5.10196
-4.23273
-3.41019
-2.63449
-1.9083
-1.24105
-0.642333
-0.114348
0.345631
0.739718
1.06994
1.3417
1.56191
1.73535
1.86487
1.95376
2.00694
2.02896
2.02414
2.00134
1.9681
1.90841
1.78042
1.62505
1.54385
1.589
1.7747
2.12356
2.62364
3.24699
3.97646
4.80239
5.72088
6.71987
7.77387
8.85016
9.92458
10.9948
12.0736
13.1726
14.2979
15.4377
16.5451
17.5483
18.3892
19.04
19.498
19.7795
19.9113
19.9233
19.8442
19.6995
19.5102
19.293
19.0606
18.8228
18.5876
18.3611
18.1474
17.9483
17.7648
17.6004
17.4605
17.3472
17.2579
17.1861
17.127
17.0736
17.0207
16.9573
16.8802
16.7741
-4.11279
-4.31386
-4.65992
-5.10452
-5.62619
-6.20723
-6.83086
-7.48263
-8.15098
-8.82497
-9.49345
-10.1453
-10.7698
-11.3573
-11.8998
-12.3913
-12.8283
-13.2096
-13.5373
-13.8166
-14.0539
-14.2561
-14.4319
-14.592
-14.7478
-14.9098
-15.0875
-15.288
-15.5184
-15.7905
-16.1176
-16.5081
-16.9648
-17.4834
-18.0509
-18.6467
-19.2507
-19.8442
-20.4106
-20.9332
-21.3914
-21.7781
-22.1021
-22.3637
-22.5637
-22.7041
-22.7785
-22.7776
-22.7036
-22.5732
-22.3897
-22.1432
-21.8527
-21.5546
-21.2819
-21.0603
-20.8994
-20.7911
-20.7163
-20.6553
-20.5885
-20.5005
-20.3873
-20.2573
-20.122
-19.9912
-19.876
-19.7964
-19.7781
-19.8254
-19.9378
-20.119
-20.3506
-20.5998
-20.8351
-21.0295
-21.1669
-21.24
-21.2489
-21.2005
-21.1077
-20.9883
-20.8617
-20.7473
-20.6605
-20.6033
-20.5624
-20.5398
-20.5522
-20.6476
-20.837
-21.0054
-21.0198
-20.8354
-20.4361
-19.8148
-18.9917
-18.0037
-16.8987
-15.7241
-14.5233
-13.3248
-12.1732
-11.1051
-10.0588
-9.01265
-7.99699
-7.01626
-6.07592
-5.18655
-4.34895
-3.55882
-2.81392
-2.1236
-1.50181
-0.955063
-0.482278
-0.082579
0.24441
0.504343
0.709626
0.871708
0.995321
1.0829
1.13998
1.17405
1.19113
1.18728
1.15255
1.06287
0.892222
0.704738
0.613464
0.669918
0.881236
1.26331
1.79629
2.44674
3.19704
4.03933
4.97164
5.98204
7.04394
8.12386
9.19839
10.2683
11.3495
12.4535
13.5836
14.7259
15.8319
16.8299
17.665
18.3134
18.7758
19.0689
19.2188
19.2534
19.1998
19.082
18.92
18.729
18.5203
18.3036
18.0871
17.8778
17.6813
17.5007
17.3368
17.19
17.0631
16.9589
16.8771
16.8126
16.7605
16.714
16.6675
16.6106
16.5399
16.4425
-4.1687
-4.34982
-4.67589
-5.11872
-5.65679
-6.26704
-6.92782
-7.62091
-8.33251
-9.05101
-9.76577
-10.4664
-11.1432
-11.7875
-12.3927
-12.9543
-13.4691
-13.9352
-14.3529
-14.725
-15.0551
-15.3472
-15.6069
-15.8421
-16.0624
-16.2781
-16.4993
-16.7348
-16.9941
-17.2919
-17.6405
-18.0471
-18.5157
-19.0432
-19.617
-20.2168
-20.8208
-21.4089
-21.9671
-22.4832
-22.9336
-23.3037
-23.6033
-23.8396
-24.015
-24.1321
-24.1867
-24.1708
-24.0846
-23.942
-23.7446
-23.4771
-23.1576
-22.8266
-22.5182
-22.2585
-22.0598
-21.9154
-21.8071
-21.7166
-21.6237
-21.5131
-21.3817
-21.2388
-21.0973
-20.967
-20.8565
-20.7836
-20.7723
-20.8249
-20.9454
-21.1451
-21.4052
-21.6857
-21.9455
-22.1502
-22.2805
-22.3299
-22.3011
-22.2059
-22.0648
-21.9018
-21.739
-21.5942
-21.4819
-21.4067
-21.3579
-21.3378
-21.3588
-21.4527
-21.637
-21.81
-21.8253
-21.6408
-21.25
-20.6471
-19.8488
-18.8905
-17.8174
-16.674
-15.5002
-14.3246
-13.1871
-12.12
-11.0665
-10.0101
-8.98148
-7.98269
-7.02296
-6.1189
-5.27079
-4.46816
-3.70475
-2.99278
-2.35099
-1.78804
-1.30368
-0.898628
-0.575872
-0.328945
-0.136607
0.0208109
0.147658
0.243199
0.312787
0.366099
0.40895
0.428701
0.402737
0.298098
0.102117
-0.10464
-0.198161
-0.125025
0.110747
0.517817
1.07317
1.74004
2.50147
3.35109
4.28787
5.2998
6.35944
7.43337
8.50078
9.56637
10.6478
11.7544
12.8855
14.0236
15.1184
16.1009
16.9209
17.5594
18.0197
18.3194
18.4829
18.5365
18.5054
18.4124
18.2758
18.1092
17.9233
17.7274
17.5303
17.3393
17.1605
16.9984
16.8547
16.7286
16.6196
16.5285
16.4555
16.3979
16.3519
16.311
16.2699
16.2189
16.1544
16.066
-4.09669
-4.27626
-4.61237
-5.08072
-5.6556
-6.30959
-7.01808
-7.75955
-8.51667
-9.27599
-10.0274
-10.7632
-11.4774
-12.1658
-12.8255
-13.4531
-14.0438
-14.5916
-15.0928
-15.5471
-15.9567
-16.3245
-16.655
-16.9546
-17.2321
-17.4977
-17.7619
-18.0325
-18.3192
-18.6343
-18.9866
-19.3837
-19.8312
-20.3302
-20.8728
-21.4429
-22.0186
-22.5785
-23.1074
-23.5974
-24.0311
-24.3877
-24.6698
-24.8889
-25.05
-25.1554
-25.2031
-25.1874
-25.108
-24.9787
-24.8005
-24.5481
-24.2303
-23.8898
-23.5651
-23.2841
-23.0626
-22.896
-22.7675
-22.6597
-22.5535
-22.4354
-22.303
-22.1639
-22.0303
-21.9111
-21.8128
-21.7509
-21.7465
-21.8037
-21.9326
-22.1485
-22.433
-22.7418
-23.0247
-23.2392
-23.3627
-23.3884
-23.3201
-23.1736
-22.9774
-22.7643
-22.5598
-22.3803
-22.2378
-22.1388
-22.0759
-22.0487
-22.068
-22.1445
-22.2961
-22.4466
-22.4491
-22.2581
-21.8759
-21.297
-20.5315
-19.6104
-18.5754
-17.4694
-16.333
-15.1959
-14.09
-13.0394
-11.9917
-10.9341
-9.9015
-8.8941
-7.92443
-7.01387
-6.16047
-5.34712
-4.56592
-3.83434
-3.17558
-2.59809
-2.10104
-1.68876
-1.36931
-1.13454
-0.952584
-0.79482
-0.657593
-0.546276
-0.456963
-0.379206
-0.307991
-0.260499
-0.266372
-0.369119
-0.571688
-0.785085
-0.875767
-0.7849
-0.528468
-0.106297
0.460364
1.1337
1.89733
2.74625
3.6791
4.68282
5.72966
6.78819
7.84233
8.90059
9.98002
11.0858
12.2124
13.3382
14.4115
15.3676
16.1631
16.7838
17.2354
17.5358
17.7081
17.7769
17.7657
17.695
17.581
17.4355
17.2691
17.0919
16.9132
16.7409
16.5815
16.4391
16.3159
16.2115
16.1234
16.049
15.9875
15.9374
15.8963
15.8592
15.8218
15.776
15.7175
15.6382
-3.87061
-4.06072
-4.41996
-4.92169
-5.53714
-6.23482
-6.98712
-7.77038
-8.56593
-9.36142
-10.1499
-10.9261
-11.6845
-12.4204
-13.131
-13.8128
-14.4604
-15.0657
-15.6221
-16.1292
-16.5912
-17.0127
-17.3974
-17.7502
-18.0789
-18.3944
-18.7064
-19.0206
-19.3426
-19.6786
-20.032
-20.409
-20.8164
-21.2597
-21.7391
-22.2469
-22.7667
-23.2781
-23.7634
-24.2127
-24.6175
-24.961
-25.2377
-25.455
-25.6178
-25.7273
-25.7835
-25.786
-25.7366
-25.6464
-25.5148
-25.31
-25.0264
-24.7019
-24.3796
-24.0935
-23.8643
-23.689
-23.5521
-23.437
-23.3285
-23.2168
-23.1
-22.9816
-22.8681
-22.7671
-22.6852
-22.6363
-22.6412
-22.7079
-22.8494
-23.0832
-23.3921
-23.7299
-24.0369
-24.2615
-24.3769
-24.3762
-24.2652
-24.065
-23.8119
-23.5475
-23.3016
-23.0879
-22.9141
-22.786
-22.7003
-22.653
-22.6525
-22.6985
-22.7988
-22.9022
-22.8783
-22.674
-22.2959
-21.7396
-21.0072
-20.1243
-19.1309
-18.0724
-16.9899
-15.9081
-14.8479
-13.8257
-12.7968
-11.7516
-10.728
-9.72739
-8.76314
-7.85806
-7.00666
-6.18702
-5.39208
-4.64442
-3.96923
-3.37519
-2.86345
-2.44245
-2.12335
-1.89596
-1.71912
-1.55646
-1.40359
-1.26994
-1.15446
-1.04803
-0.946294
-0.868058
-0.84547
-0.930228
-1.11908
-1.32432
-1.40885
-1.30427
-1.03276
-0.604645
-0.0373109
0.633609
1.39148
2.23217
3.15278
4.13846
5.1622
6.19728
7.23376
8.28244
9.35709
10.4575
11.5727
12.6766
13.7173
14.6365
15.3984
15.9932
16.429
16.7237
16.8995
16.9793
16.9846
16.9333
16.8383
16.7098
16.5585
16.3963
16.2337
16.0796
15.9405
15.8199
15.7186
15.6358
15.5688
15.513
15.4654
15.4238
15.3869
15.3519
15.3164
15.2746
15.2224
15.1531
-3.40817
-3.60884
-3.98844
-4.52128
-5.17455
-5.91305
-6.70849
-7.53827
-8.38509
-9.2372
-10.0868
-10.9248
-11.7378
-12.5145
-13.2512
-13.9475
-14.6035
-15.2171
-15.7865
-16.314
-16.8064
-17.2702
-17.7086
-18.1248
-18.5237
-18.9129
-19.2961
-19.6707
-20.0354
-20.3906
-20.7366
-21.079
-21.4287
-21.7963
-22.1892
-22.6082
-23.0469
-23.4921
-23.9254
-24.3307
-24.7008
-25.0282
-25.3057
-25.5351
-25.7195
-25.8565
-25.9448
-25.9857
-25.9835
-25.9475
-25.8761
-25.7378
-25.5167
-25.2385
-24.9427
-24.6692
-24.4465
-24.2758
-24.1423
-24.0318
-23.9346
-23.8443
-23.758
-23.6737
-23.591
-23.5159
-23.4558
-23.4246
-23.4427
-23.5221
-23.6797
-23.9328
-24.2654
-24.631
-24.9601
-25.1896
-25.2898
-25.2574
-25.1028
-24.8516
-24.5462
-24.2342
-23.9483
-23.7013
-23.4956
-23.3345
-23.2168
-23.1373
-23.101
-23.1063
-23.1482
-23.1909
-23.1299
-22.9053
-22.5211
-21.9764
-21.2697
-20.4231
-19.477
-18.4783
-17.4632
-16.4483
-15.4455
-14.4631
-13.465
-12.4459
-11.4465
-10.4704
-9.52738
-8.63816
-7.79548
-6.97605
-6.17443
-5.41647
-4.72836
-4.11988
-3.59541
-3.16602
-2.84442
-2.61841
-2.44014
-2.26734
-2.09403
-1.93169
-1.78318
-1.6434
-1.50908
-1.39799
-1.34225
-1.39354
-1.54671
-1.72571
-1.80007
-1.68807
-1.40773
-0.980821
-0.422318
0.237751
0.982505
1.80738
2.70714
3.66541
4.65792
5.66465
6.68148
7.71909
8.7855
9.87405
10.9686
12.0387
13.0345
13.9063
14.626
15.1878
15.6018
15.8863
16.0618
16.1492
16.1668
16.1294
16.047
15.9288
15.7874
15.6361
15.487
15.3501
15.2318
15.1342
15.0561
14.9953
14.9485
14.9109
14.8776
14.8454
14.8128
14.7793
14.7447
14.7069
14.6621
14.6056
-2.63226
-2.85317
-3.26585
-3.84267
-4.54838
-5.34511
-6.20278
-7.09708
-8.00843
-8.92083
-9.82168
-10.6982
-11.5326
-12.3073
-13.0201
-13.6817
-14.3026
-14.8901
-15.4497
-15.9881
-16.5139
-17.0326
-17.5449
-18.0501
-18.5479
-19.0362
-19.5062
-19.9435
-20.3379
-20.6904
-21.0082
-21.3018
-21.5853
-21.8742
-22.1811
-22.5136
-22.8733
-23.2537
-23.6357
-23.9961