/*--------------------------------*- C++ -*----------------------------------*\
  =========                 |
  \\      /  F ield         | OpenFOAM: The Open Source CFD Toolbox
   \\    /   O peration     | Website:  https://openfoam.org
    \\  /    A nd           | Version:  6
     \\/     M anipulation  |
\*---------------------------------------------------------------------------*/
FoamFile
{
    version     2.0;
    format      ascii;
    class       volScalarField;
    location    "0.15";
    object      pPrime2Mean;
}
// * * * * * * * * * * * * * * * * * * * * * * * * * * * * * * * * * * * * * //

dimensions      [0 4 -4 0 0 0 0];

internalField   nonuniform List<scalar> 
12225
(
2.99508e+06
2.94692e+06
2.89907e+06
2.8526e+06
2.80771e+06
2.76434e+06
2.72245e+06
2.68193e+06
2.64269e+06
2.6046e+06
2.56752e+06
2.53129e+06
2.4957e+06
2.46048e+06
2.42527e+06
2.38948e+06
2.35208e+06
2.3105e+06
2.99514e+06
2.94696e+06
2.89911e+06
2.85264e+06
2.80774e+06
2.76438e+06
2.72249e+06
2.68198e+06
2.64275e+06
2.60467e+06
2.56761e+06
2.5314e+06
2.49585e+06
2.46068e+06
2.42557e+06
2.38998e+06
2.35303e+06
2.31285e+06
2.99522e+06
2.94706e+06
2.89919e+06
2.85272e+06
2.80782e+06
2.76447e+06
2.72259e+06
2.68209e+06
2.64288e+06
2.60483e+06
2.5678e+06
2.53165e+06
2.49617e+06
2.46114e+06
2.42623e+06
2.39103e+06
2.35491e+06
2.31713e+06
2.99537e+06
2.94721e+06
2.89933e+06
2.85285e+06
2.80796e+06
2.76461e+06
2.72274e+06
2.68227e+06
2.64309e+06
2.60508e+06
2.56812e+06
2.53205e+06
2.49671e+06
2.46187e+06
2.42728e+06
2.39265e+06
2.35764e+06
2.3223e+06
2.99562e+06
2.94744e+06
2.89954e+06
2.85305e+06
2.80815e+06
2.76482e+06
2.72297e+06
2.68253e+06
2.64339e+06
2.60545e+06
2.56858e+06
2.53264e+06
2.49748e+06
2.46291e+06
2.42876e+06
2.39483e+06
2.36107e+06
2.32789e+06
2.99606e+06
2.94777e+06
2.89983e+06
2.85332e+06
2.80843e+06
2.7651e+06
2.72328e+06
2.68289e+06
2.64382e+06
2.60597e+06
2.56922e+06
2.53344e+06
2.49851e+06
2.46429e+06
2.43066e+06
2.39754e+06
2.36504e+06
2.3337e+06
2.99654e+06
2.94819e+06
2.90021e+06
2.85368e+06
2.80879e+06
2.76548e+06
2.7237e+06
2.68336e+06
2.64437e+06
2.60663e+06
2.57004e+06
2.53447e+06
2.49983e+06
2.46602e+06
2.43298e+06
2.40072e+06
2.36943e+06
2.33961e+06
2.99722e+06
2.94874e+06
2.9007e+06
2.85414e+06
2.80925e+06
2.76597e+06
2.72423e+06
2.68397e+06
2.64508e+06
2.60748e+06
2.57107e+06
2.53576e+06
2.50146e+06
2.46811e+06
2.4357e+06
2.4043e+06
2.37412e+06
2.34558e+06
2.99806e+06
2.94943e+06
2.90131e+06
2.85472e+06
2.80982e+06
2.76657e+06
2.72489e+06
2.68472e+06
2.64595e+06
2.60852e+06
2.57233e+06
2.53731e+06
2.50339e+06
2.47055e+06
2.4388e+06
2.40824e+06
2.37906e+06
2.35158e+06
2.99912e+06
2.95027e+06
2.90206e+06
2.85543e+06
2.81053e+06
2.76731e+06
2.72571e+06
2.68563e+06
2.64701e+06
2.60977e+06
2.57383e+06
2.53914e+06
2.50564e+06
2.47333e+06
2.44224e+06
2.41247e+06
2.38418e+06
2.3576e+06
3.00029e+06
2.95128e+06
2.90296e+06
2.85629e+06
2.81139e+06
2.76821e+06
2.72668e+06
2.68673e+06
2.64827e+06
2.61125e+06
2.57559e+06
2.54125e+06
2.5082e+06
2.47643e+06
2.44598e+06
2.41695e+06
2.38945e+06
2.36363e+06
3.00138e+06
2.95236e+06
2.90396e+06
2.85723e+06
2.81233e+06
2.76918e+06
2.72774e+06
2.68791e+06
2.64963e+06
2.61282e+06
2.57745e+06
2.54345e+06
2.51081e+06
2.47954e+06
2.44966e+06
2.42125e+06
2.39439e+06
2.36917e+06
3.00276e+06
2.9536e+06
2.90509e+06
2.8583e+06
2.81339e+06
2.77029e+06
2.72893e+06
2.68923e+06
2.65114e+06
2.61457e+06
2.57948e+06
2.54584e+06
2.51362e+06
2.48282e+06
2.45348e+06
2.42564e+06
2.39934e+06
2.37465e+06
3.00468e+06
2.95527e+06
2.90659e+06
2.85971e+06
2.81478e+06
2.77174e+06
2.73049e+06
2.69096e+06
2.65309e+06
2.6168e+06
2.58206e+06
2.54882e+06
2.51707e+06
2.48681e+06
2.45803e+06
2.43077e+06
2.40505e+06
2.38088e+06
3.00749e+06
2.95753e+06
2.90857e+06
2.86156e+06
2.81661e+06
2.77362e+06
2.7325e+06
2.69318e+06
2.65557e+06
2.61962e+06
2.58528e+06
2.5525e+06
2.52127e+06
2.49156e+06
2.46337e+06
2.4367e+06
2.41154e+06
2.38788e+06
3.01106e+06
2.96046e+06
2.91113e+06
2.86395e+06
2.81896e+06
2.77604e+06
2.73508e+06
2.696e+06
2.6587e+06
2.62313e+06
2.58923e+06
2.55695e+06
2.52626e+06
2.49713e+06
2.46952e+06
2.44343e+06
2.4188e+06
2.39562e+06
3.01549e+06
2.96414e+06
2.91436e+06
2.86695e+06
2.82191e+06
2.77907e+06
2.73829e+06
2.69948e+06
2.66253e+06
2.62738e+06
2.59395e+06
2.56219e+06
2.53205e+06
2.50348e+06
2.47644e+06
2.45088e+06
2.42676e+06
2.40402e+06
3.02087e+06
2.96852e+06
2.91817e+06
2.87052e+06
2.82543e+06
2.78269e+06
2.74213e+06
2.70362e+06
2.66706e+06
2.63234e+06
2.5994e+06
2.56815e+06
2.53854e+06
2.51051e+06
2.48399e+06
2.45892e+06
2.43525e+06
2.41291e+06
3.02696e+06
2.97307e+06
2.92215e+06
2.87433e+06
2.82928e+06
2.78672e+06
2.74643e+06
2.70827e+06
2.6721e+06
2.63783e+06
2.60536e+06
2.5746e+06
2.54548e+06
2.51793e+06
2.49187e+06
2.46724e+06
2.44396e+06
2.42197e+06
3.02706e+06
2.97461e+06
2.9243e+06
2.87684e+06
2.83209e+06
2.78981e+06
2.74982e+06
2.71196e+06
2.67612e+06
2.64219e+06
2.61006e+06
2.57965e+06
2.55087e+06
2.52365e+06
2.4979e+06
2.47354e+06
2.45052e+06
2.42875e+06
3.02689e+06
2.97512e+06
2.92534e+06
2.87826e+06
2.8338e+06
2.79178e+06
2.75203e+06
2.7144e+06
2.67879e+06
2.64508e+06
2.61318e+06
2.58299e+06
2.55442e+06
2.52739e+06
2.50182e+06
2.47764e+06
2.45477e+06
2.43314e+06
3.02603e+06
2.97509e+06
2.92583e+06
2.87912e+06
2.83494e+06
2.79314e+06
2.75359e+06
2.71615e+06
2.68071e+06
2.64717e+06
2.61543e+06
2.58539e+06
2.55696e+06
2.53007e+06
2.50463e+06
2.48056e+06
2.45779e+06
2.43625e+06
3.02523e+06
2.97487e+06
2.92604e+06
2.87963e+06
2.83569e+06
2.79408e+06
2.75468e+06
2.71738e+06
2.68207e+06
2.64865e+06
2.61702e+06
2.58709e+06
2.55877e+06
2.53197e+06
2.50662e+06
2.48263e+06
2.45993e+06
2.43844e+06
3.02447e+06
2.97459e+06
2.9261e+06
2.87994e+06
2.83618e+06
2.79471e+06
2.75543e+06
2.71824e+06
2.68302e+06
2.64969e+06
2.61814e+06
2.58828e+06
2.56003e+06
2.5333e+06
2.508e+06
2.48407e+06
2.46142e+06
2.43997e+06
3.02388e+06
2.97433e+06
2.92609e+06
2.88012e+06
2.83649e+06
2.79514e+06
2.75595e+06
2.71883e+06
2.68368e+06
2.6504e+06
2.61891e+06
2.58911e+06
2.5609e+06
2.53421e+06
2.50896e+06
2.48506e+06
2.46244e+06
2.44102e+06
3.02333e+06
2.97409e+06
2.92606e+06
2.88022e+06
2.8367e+06
2.79542e+06
2.75629e+06
2.71922e+06
2.68411e+06
2.65088e+06
2.61943e+06
2.58966e+06
2.56148e+06
2.53482e+06
2.5096e+06
2.48572e+06
2.46312e+06
2.44173e+06
3.02276e+06
2.97389e+06
2.92602e+06
2.88028e+06
2.83683e+06
2.79559e+06
2.7565e+06
2.71947e+06
2.6844e+06
2.65119e+06
2.61976e+06
2.59001e+06
2.56186e+06
2.53522e+06
2.51001e+06
2.48615e+06
2.46356e+06
2.44218e+06
3.02243e+06
2.97375e+06
2.92599e+06
2.88032e+06
2.8369e+06
2.7957e+06
2.75663e+06
2.71962e+06
2.68457e+06
2.65138e+06
2.61996e+06
2.59023e+06
2.56209e+06
2.53546e+06
2.51026e+06
2.4864e+06
2.46383e+06
2.44245e+06
3.02228e+06
2.97368e+06
2.92598e+06
2.88033e+06
2.83694e+06
2.79576e+06
2.7567e+06
2.7197e+06
2.68466e+06
2.65148e+06
2.62007e+06
2.59034e+06
2.56221e+06
2.53559e+06
2.51039e+06
2.48654e+06
2.46397e+06
2.4426e+06
3.02214e+06
2.97364e+06
2.92597e+06
2.88034e+06
2.83696e+06
2.79578e+06
2.75673e+06
2.71974e+06
2.68469e+06
2.65152e+06
2.62011e+06
2.59039e+06
2.56226e+06
2.53564e+06
2.51044e+06
2.4866e+06
2.46403e+06
2.44266e+06
1.95293e+06
1.95277e+06
1.95246e+06
1.95198e+06
1.95135e+06
1.95054e+06
1.94956e+06
1.94842e+06
1.94709e+06
1.94559e+06
1.94391e+06
1.94205e+06
1.94001e+06
1.93779e+06
1.93538e+06
1.93279e+06
1.93e+06
1.92704e+06
1.92388e+06
1.92054e+06
1.91702e+06
1.9133e+06
1.90941e+06
1.90533e+06
1.90108e+06
1.89664e+06
1.89203e+06
1.88724e+06
1.88227e+06
1.87714e+06
1.87183e+06
1.86635e+06
1.86071e+06
1.85491e+06
1.84894e+06
1.84282e+06
1.83654e+06
1.83011e+06
1.82353e+06
1.8168e+06
1.80993e+06
1.80291e+06
1.79574e+06
1.78844e+06
1.781e+06
1.77342e+06
1.76571e+06
1.75787e+06
1.7499e+06
1.7418e+06
1.73358e+06
1.72524e+06
1.71679e+06
1.70822e+06
1.69954e+06
1.69075e+06
1.68185e+06
1.67285e+06
1.66375e+06
1.65456e+06
1.64526e+06
1.63587e+06
1.62638e+06
1.6168e+06
1.60712e+06
1.59735e+06
1.58748e+06
1.57753e+06
1.56748e+06
1.55734e+06
1.54712e+06
1.53681e+06
1.52642e+06
1.51594e+06
1.50539e+06
1.49476e+06
1.48406e+06
1.47331e+06
1.46249e+06
1.4516e+06
1.44066e+06
1.42966e+06
1.41861e+06
1.40749e+06
1.39632e+06
1.3851e+06
1.37382e+06
1.36248e+06
1.35109e+06
1.33964e+06
1.32813e+06
1.31657e+06
1.30495e+06
1.29327e+06
1.28153e+06
1.26973e+06
1.25788e+06
1.24598e+06
1.23404e+06
1.22204e+06
1.21001e+06
1.19792e+06
1.1858e+06
1.17364e+06
1.16145e+06
1.14923e+06
1.13698e+06
1.12471e+06
1.11241e+06
1.10011e+06
1.08781e+06
1.07549e+06
1.06314e+06
1.05078e+06
1.03837e+06
1.02593e+06
1.01345e+06
1.00093e+06
988368
975776
963155
950511
937847
925169
912487
899808
887134
874466
861800
849133
836458
823772
811069
798348
785608
772864
760135
747431
734752
722096
709458
696830
684205
671578
658948
646319
633698
621098
608533
596016
583558
571161
558823
546538
534301
522106
509954
497846
485785
473777
461826
449937
438114
426359
414678
403073
391548
380106
368751
357486
346317
335250
324291
313446
302724
292136
281695
271424
261359
251581
1.95363e+06
1.95348e+06
1.95316e+06
1.95269e+06
1.95204e+06
1.95123e+06
1.95025e+06
1.9491e+06
1.94777e+06
1.94626e+06
1.94457e+06
1.9427e+06
1.94065e+06
1.93842e+06
1.936e+06
1.93339e+06
1.9306e+06
1.92761e+06
1.92445e+06
1.92109e+06
1.91755e+06
1.91382e+06
1.90991e+06
1.90582e+06
1.90155e+06
1.8971e+06
1.89247e+06
1.88766e+06
1.88268e+06
1.87753e+06
1.87221e+06
1.86672e+06
1.86107e+06
1.85525e+06
1.84928e+06
1.84314e+06
1.83685e+06
1.83041e+06
1.82382e+06
1.81708e+06
1.81019e+06
1.80316e+06
1.79599e+06
1.78867e+06
1.78122e+06
1.77363e+06
1.76591e+06
1.75806e+06
1.75009e+06
1.74198e+06
1.73375e+06
1.72541e+06
1.71694e+06
1.70837e+06
1.69968e+06
1.69088e+06
1.68198e+06
1.67298e+06
1.66387e+06
1.65467e+06
1.64537e+06
1.63598e+06
1.62649e+06
1.6169e+06
1.60722e+06
1.59745e+06
1.58758e+06
1.57761e+06
1.56756e+06
1.55742e+06
1.54718e+06
1.53687e+06
1.52647e+06
1.51599e+06
1.50544e+06
1.49481e+06
1.48412e+06
1.47336e+06
1.46254e+06
1.45165e+06
1.44071e+06
1.42971e+06
1.41865e+06
1.40754e+06
1.39637e+06
1.38514e+06
1.37386e+06
1.36252e+06
1.35113e+06
1.33968e+06
1.32817e+06
1.3166e+06
1.30498e+06
1.2933e+06
1.28155e+06
1.26976e+06
1.25791e+06
1.24602e+06
1.23407e+06
1.22208e+06
1.21004e+06
1.19795e+06
1.18583e+06
1.17367e+06
1.16147e+06
1.14925e+06
1.137e+06
1.12473e+06
1.11244e+06
1.10015e+06
1.08784e+06
1.07552e+06
1.06318e+06
1.05081e+06
1.0384e+06
1.02596e+06
1.01347e+06
1.00095e+06
988389
975795
963173
950527
937863
925186
912506
899828
887155
874486
861819
849151
836475
823788
811083
798360
785622
772883
760159
747456
734777
722120
709479
696848
684220
671591
658960
646330
633708
621106
608539
596020
583560
571161
558823
546538
534300
522105
509953
497844
485784
473776
461826
449937
438114
426360
414678
403073
391548
380105
368750
357485
346316
335248
324288
313442
302718
292127
281683
271405
261324
251495
1.95505e+06
1.95489e+06
1.95457e+06
1.95409e+06
1.95344e+06
1.95262e+06
1.95163e+06
1.95046e+06
1.94912e+06
1.9476e+06
1.94589e+06
1.94401e+06
1.94193e+06
1.93968e+06
1.93723e+06
1.9346e+06
1.93178e+06
1.92877e+06
1.92557e+06
1.92219e+06
1.91862e+06
1.91486e+06
1.91092e+06
1.9068e+06
1.90249e+06
1.89801e+06
1.89335e+06
1.88851e+06
1.8835e+06
1.87832e+06
1.87297e+06
1.86746e+06
1.86178e+06
1.85594e+06
1.84994e+06
1.84378e+06
1.83746e+06
1.831e+06
1.82438e+06
1.81762e+06
1.81071e+06
1.80366e+06
1.79647e+06
1.78913e+06
1.78166e+06
1.77406e+06
1.76632e+06
1.75845e+06
1.75046e+06
1.74234e+06
1.73409e+06
1.72573e+06
1.71725e+06
1.70866e+06
1.69996e+06
1.69115e+06
1.68223e+06
1.67322e+06
1.66411e+06
1.6549e+06
1.64559e+06
1.63619e+06
1.6267e+06
1.6171e+06
1.60741e+06
1.59763e+06
1.58775e+06
1.57778e+06
1.56771e+06
1.55756e+06
1.54731e+06
1.53698e+06
1.52658e+06
1.51609e+06
1.50554e+06
1.49491e+06
1.48422e+06
1.47346e+06
1.46263e+06
1.45175e+06
1.4408e+06
1.4298e+06
1.41874e+06
1.40762e+06
1.39645e+06
1.38522e+06
1.37393e+06
1.36259e+06
1.35119e+06
1.33974e+06
1.32823e+06
1.31666e+06
1.30504e+06
1.29335e+06
1.28161e+06
1.26982e+06
1.25798e+06
1.24608e+06
1.23414e+06
1.22214e+06
1.2101e+06
1.19801e+06
1.18588e+06
1.17372e+06
1.16152e+06
1.14929e+06
1.13703e+06
1.12477e+06
1.11249e+06
1.1002e+06
1.0879e+06
1.07558e+06
1.06324e+06
1.05086e+06
1.03845e+06
1.026e+06
1.01352e+06
1.00099e+06
988425
975828
963203
950557
937893
925218
912539
899861
887188
874519
861851
849182
836506
823817
811111
798387
785653
772922
760201
747500
734819
722159
709514
696879
684248
671617
658983
646351
633727
621122
608552
596029
583565
571163
558822
546536
534297
522102
509950
497842
485782
473775
461825
449937
438114
426360
414679
403073
391547
380105
368748
357483
346313
335244
324282
313434
302707
292111
281660
271369
261262
251369
1.95719e+06
1.95703e+06
1.9567e+06
1.95621e+06
1.95555e+06
1.95472e+06
1.95371e+06
1.95252e+06
1.95116e+06
1.94961e+06
1.94788e+06
1.94596e+06
1.94386e+06
1.94157e+06
1.93909e+06
1.93641e+06
1.93355e+06
1.9305e+06
1.92726e+06
1.92383e+06
1.92022e+06
1.91642e+06
1.91243e+06
1.90826e+06
1.90391e+06
1.89938e+06
1.89467e+06
1.88979e+06
1.88473e+06
1.87951e+06
1.87412e+06
1.86856e+06
1.86284e+06
1.85696e+06
1.85092e+06
1.84472e+06
1.83837e+06
1.83188e+06
1.82523e+06
1.81843e+06
1.81149e+06
1.80441e+06
1.79719e+06
1.78982e+06
1.78232e+06
1.77469e+06
1.76692e+06
1.75903e+06
1.75101e+06
1.74286e+06
1.73459e+06
1.7262e+06
1.7177e+06
1.70908e+06
1.70036e+06
1.69153e+06
1.6826e+06
1.67358e+06
1.66445e+06
1.65523e+06
1.64591e+06
1.6365e+06
1.62699e+06
1.61738e+06
1.60768e+06
1.59789e+06
1.588e+06
1.57801e+06
1.56793e+06
1.55776e+06
1.5475e+06
1.53716e+06
1.52674e+06
1.51625e+06
1.50569e+06
1.49506e+06
1.48436e+06
1.4736e+06
1.46277e+06
1.45188e+06
1.44093e+06
1.42993e+06
1.41886e+06
1.40774e+06
1.39656e+06
1.38532e+06
1.37403e+06
1.36269e+06
1.35129e+06
1.33983e+06
1.32832e+06
1.31675e+06
1.30512e+06
1.29344e+06
1.2817e+06
1.26991e+06
1.25807e+06
1.24617e+06
1.23422e+06
1.22222e+06
1.21018e+06
1.19809e+06
1.18595e+06
1.17378e+06
1.16157e+06
1.14934e+06
1.13709e+06
1.12483e+06
1.11255e+06
1.10027e+06
1.08797e+06
1.07565e+06
1.0633e+06
1.05092e+06
1.03851e+06
1.02606e+06
1.01357e+06
1.00104e+06
988470
975870
963244
950596
937932
925258
912581
899904
887231
874563
861896
849227
836550
823859
811152
798430
785702
772975
760259
747558
734876
722212
709562
696922
684286
671651
659015
646380
633753
621145
608570
596042
583572
571166
558822
546533
534293
522098
509945
497838
485779
473773
461824
449936
438114
426360
414679
403073
391547
380104
368747
357480
346309
335238
324273
313422
302690
292088
281627
271319
261181
251225
1.96006e+06
1.95989e+06
1.95956e+06
1.95905e+06
1.95838e+06
1.95753e+06
1.9565e+06
1.95529e+06
1.95389e+06
1.95231e+06
1.95054e+06
1.94858e+06
1.94643e+06
1.94409e+06
1.94156e+06
1.93883e+06
1.93592e+06
1.93281e+06
1.92951e+06
1.92602e+06
1.92235e+06
1.91848e+06
1.91444e+06
1.9102e+06
1.90579e+06
1.9012e+06
1.89643e+06
1.89149e+06
1.88638e+06
1.88109e+06
1.87564e+06
1.87003e+06
1.86425e+06
1.85832e+06
1.85222e+06
1.84598e+06
1.83958e+06
1.83304e+06
1.82634e+06
1.81951e+06
1.81253e+06
1.8054e+06
1.79814e+06
1.79073e+06
1.78319e+06
1.77552e+06
1.76772e+06
1.75978e+06
1.75173e+06
1.74354e+06
1.73524e+06
1.72682e+06
1.71828e+06
1.70964e+06
1.70089e+06
1.69204e+06
1.68309e+06
1.67404e+06
1.6649e+06
1.65566e+06
1.64632e+06
1.63689e+06
1.62737e+06
1.61774e+06
1.60803e+06
1.59821e+06
1.5883e+06
1.5783e+06
1.5682e+06
1.55801e+06
1.54773e+06
1.53738e+06
1.52696e+06
1.51646e+06
1.50589e+06
1.49526e+06
1.48455e+06
1.47379e+06
1.46295e+06
1.45206e+06
1.4411e+06
1.43009e+06
1.41901e+06
1.40788e+06
1.3967e+06
1.38545e+06
1.37416e+06
1.36281e+06
1.35141e+06
1.33995e+06
1.32844e+06
1.31686e+06
1.30523e+06
1.29355e+06
1.28181e+06
1.27002e+06
1.25818e+06
1.24628e+06
1.23433e+06
1.22232e+06
1.21027e+06
1.19817e+06
1.18603e+06
1.17385e+06
1.16164e+06
1.1494e+06
1.13716e+06
1.1249e+06
1.11263e+06
1.10034e+06
1.08804e+06
1.07572e+06
1.06337e+06
1.05099e+06
1.03858e+06
1.02612e+06
1.01363e+06
1.00109e+06
988522
975920
963292
950643
937979
925305
912629
899954
887284
874617
861952
849284
836606
823915
811208
798489
785765
773042
760328
747628
734943
722274
709619
696973
684333
671693
659054
646416
633786
621173
608593
596058
583583
571171
558822
546530
534289
522092
509940
497833
485775
473770
461821
449935
438113
426359
414678
403073
391546
380102
368744
357476
346303
335229
324262
313406
302669
292059
281585
271258
261087
251074
1.96368e+06
1.9635e+06
1.96316e+06
1.96264e+06
1.96194e+06
1.96107e+06
1.96e+06
1.95876e+06
1.95732e+06
1.95569e+06
1.95387e+06
1.95186e+06
1.94966e+06
1.94725e+06
1.94466e+06
1.94186e+06
1.93888e+06
1.9357e+06
1.93233e+06
1.92876e+06
1.92501e+06
1.92107e+06
1.91694e+06
1.91263e+06
1.90814e+06
1.90348e+06
1.89863e+06
1.89361e+06
1.88842e+06
1.88306e+06
1.87754e+06
1.87185e+06
1.86601e+06
1.86001e+06
1.85385e+06
1.84754e+06
1.84109e+06
1.83448e+06
1.82773e+06
1.82084e+06
1.81381e+06
1.80663e+06
1.79931e+06
1.79186e+06
1.78427e+06
1.77655e+06
1.7687e+06
1.76072e+06
1.75261e+06
1.74438e+06
1.73604e+06
1.72758e+06
1.71901e+06
1.71033e+06
1.70155e+06
1.69267e+06
1.68369e+06
1.67462e+06
1.66544e+06
1.65618e+06
1.64682e+06
1.63737e+06
1.62782e+06
1.61818e+06
1.60844e+06
1.5986e+06
1.58867e+06
1.57864e+06
1.56852e+06
1.55831e+06
1.54803e+06
1.53766e+06
1.52723e+06
1.51672e+06
1.50614e+06
1.4955e+06
1.48479e+06
1.47401e+06
1.46317e+06
1.45227e+06
1.4413e+06
1.43028e+06
1.41919e+06
1.40805e+06
1.39686e+06
1.38561e+06
1.37431e+06
1.36296e+06
1.35155e+06
1.34009e+06
1.32857e+06
1.31699e+06
1.30536e+06
1.29368e+06
1.28194e+06
1.27015e+06
1.2583e+06
1.2464e+06
1.23444e+06
1.22243e+06
1.21037e+06
1.19826e+06
1.18611e+06
1.17393e+06
1.16171e+06
1.14948e+06
1.13724e+06
1.12498e+06
1.11271e+06
1.10043e+06
1.08812e+06
1.0758e+06
1.06344e+06
1.05106e+06
1.03864e+06
1.02618e+06
1.01369e+06
1.00115e+06
988579
975976
963346
950695
938030
925357
912683
900011
887344
874680
862018
849351
836673
823982
811276
798560
785838
773118
760406
747705
735018
722344
709683
697030
684384
671740
659097
646456
633822
621206
608620
596079
583596
571178
558824
546529
534284
522087
509934
497828
485770
473766
461819
449932
438111
426357
414676
403070
391544
380100
368740
357471
346295
335219
324248
313388
302644
292025
281537
271189
260985
250922
1.96807e+06
1.96789e+06
1.96753e+06
1.96699e+06
1.96626e+06
1.96535e+06
1.96425e+06
1.96296e+06
1.96147e+06
1.95978e+06
1.9579e+06
1.95582e+06
1.95354e+06
1.95107e+06
1.94839e+06
1.94551e+06
1.94244e+06
1.93917e+06
1.93571e+06
1.93205e+06
1.92821e+06
1.92417e+06
1.91995e+06
1.91555e+06
1.91097e+06
1.9062e+06
1.90127e+06
1.89615e+06
1.89087e+06
1.88543e+06
1.87982e+06
1.87404e+06
1.86811e+06
1.86203e+06
1.8558e+06
1.84941e+06
1.84288e+06
1.83621e+06
1.82939e+06
1.82243e+06
1.81533e+06
1.8081e+06
1.80072e+06
1.79321e+06
1.78556e+06
1.77778e+06
1.76987e+06
1.76183e+06
1.75367e+06
1.74538e+06
1.73699e+06
1.72848e+06
1.71986e+06
1.71114e+06
1.70232e+06
1.69341e+06
1.68439e+06
1.67529e+06
1.66609e+06
1.65679e+06
1.64741e+06
1.63793e+06
1.62835e+06
1.61868e+06
1.60891e+06
1.59905e+06
1.58909e+06
1.57905e+06
1.56891e+06
1.55868e+06
1.54838e+06
1.538e+06
1.52755e+06
1.51703e+06
1.50645e+06
1.49579e+06
1.48507e+06
1.47428e+06
1.46342e+06
1.45251e+06
1.44153e+06
1.43049e+06
1.4194e+06
1.40825e+06
1.39704e+06
1.38579e+06
1.37448e+06
1.36312e+06
1.35171e+06
1.34024e+06
1.32872e+06
1.31714e+06
1.30551e+06
1.29383e+06
1.28209e+06
1.27029e+06
1.25843e+06
1.24652e+06
1.23456e+06
1.22254e+06
1.21048e+06
1.19837e+06
1.18621e+06
1.17402e+06
1.1618e+06
1.14957e+06
1.13733e+06
1.12507e+06
1.1128e+06
1.10051e+06
1.0882e+06
1.07587e+06
1.06352e+06
1.05113e+06
1.03871e+06
1.02625e+06
1.01375e+06
1.00121e+06
988638
976034
963403
950751
938086
925414
912742
900073
887410
874750
862090
849425
836749
824058
811354
798639
785920
773202
760489
747786
735095
722416
709749
697090
684437
671787
659140
646497
633860
621240
608649
596102
583612
571187
558828
546528
534281
522082
509929
497823
485766
473763
461816
449930
438109
426355
414674
403068
391541
380096
368736
357464
346287
335208
324233
313367
302616
291986
281483
271114
260879
250772
1.97327e+06
1.97308e+06
1.9727e+06
1.97213e+06
1.97137e+06
1.97041e+06
1.96926e+06
1.96791e+06
1.96635e+06
1.9646e+06
1.96264e+06
1.96048e+06
1.95811e+06
1.95554e+06
1.95276e+06
1.94979e+06
1.94661e+06
1.94324e+06
1.93967e+06
1.9359e+06
1.93194e+06
1.9278e+06
1.92346e+06
1.91895e+06
1.91425e+06
1.90938e+06
1.90433e+06
1.89911e+06
1.89373e+06
1.88817e+06
1.88246e+06
1.87659e+06
1.87056e+06
1.86438e+06
1.85806e+06
1.85159e+06
1.84497e+06
1.83821e+06
1.83132e+06
1.82428e+06
1.81711e+06
1.8098e+06
1.80235e+06
1.79477e+06
1.78705e+06
1.7792e+06
1.77122e+06
1.76312e+06
1.75489e+06
1.74655e+06
1.73809e+06
1.72952e+06
1.72085e+06
1.71208e+06
1.70322e+06
1.69426e+06
1.6852e+06
1.67606e+06
1.66682e+06
1.6575e+06
1.64808e+06
1.63856e+06
1.62896e+06
1.61926e+06
1.60946e+06
1.59957e+06
1.58959e+06
1.57951e+06
1.56936e+06
1.55911e+06
1.54879e+06
1.5384e+06
1.52793e+06
1.5174e+06
1.50679e+06
1.49612e+06
1.48538e+06
1.47458e+06
1.46371e+06
1.45278e+06
1.44179e+06
1.43074e+06
1.41963e+06
1.40846e+06
1.39725e+06
1.38598e+06
1.37466e+06
1.3633e+06
1.35188e+06
1.34041e+06
1.32889e+06
1.31731e+06
1.30567e+06
1.29398e+06
1.28224e+06
1.27044e+06
1.25857e+06
1.24666e+06
1.23469e+06
1.22266e+06
1.21059e+06
1.19847e+06
1.18631e+06
1.17412e+06
1.16191e+06
1.14967e+06
1.13743e+06
1.12516e+06
1.11289e+06
1.10059e+06
1.08828e+06
1.07595e+06
1.06359e+06
1.0512e+06
1.03877e+06
1.02631e+06
1.01381e+06
1.00127e+06
988698
976093
963461
950809
938144
925474
912804
900139
887480
874824
862168
849505
836829
824139
811437
798725
786006
773288
760574
747868
735172
722487
709813
697147
684488
671834
659183
646537
633898
621275
608679
596126
583630
571199
558835
546530
534280
522079
509925
497819
485763
473760
461814
449928
438107
426354
414672
403066
391538
380092
368730
357457
346277
335195
324216
313344
302585
291943
281426
271035
260771
250626
1.97931e+06
1.9791e+06
1.97869e+06
1.97809e+06
1.97728e+06
1.97628e+06
1.97506e+06
1.97364e+06
1.972e+06
1.97016e+06
1.96811e+06
1.96584e+06
1.96337e+06
1.96069e+06
1.9578e+06
1.9547e+06
1.9514e+06
1.9479e+06
1.9442e+06
1.94031e+06
1.93622e+06
1.93194e+06
1.92748e+06
1.92283e+06
1.91801e+06
1.913e+06
1.90783e+06
1.90249e+06
1.89698e+06
1.8913e+06
1.88547e+06
1.87948e+06
1.87335e+06
1.86706e+06
1.86063e+06
1.85406e+06
1.84734e+06
1.84049e+06
1.83351e+06
1.82639e+06
1.81913e+06
1.81174e+06
1.80421e+06
1.79655e+06
1.78875e+06
1.78082e+06
1.77277e+06
1.76459e+06
1.75628e+06
1.74787e+06
1.73934e+06
1.73071e+06
1.72198e+06
1.71315e+06
1.70423e+06
1.69522e+06
1.68612e+06
1.67693e+06
1.66765e+06
1.65829e+06
1.64883e+06
1.63928e+06
1.62964e+06
1.6199e+06
1.61007e+06
1.60015e+06
1.59014e+06
1.58005e+06
1.56987e+06
1.55961e+06
1.54927e+06
1.53885e+06
1.52836e+06
1.51781e+06
1.50718e+06
1.49649e+06
1.48574e+06
1.47492e+06
1.46403e+06
1.45308e+06
1.44207e+06
1.431e+06
1.41988e+06
1.4087e+06
1.39747e+06
1.38619e+06
1.37486e+06
1.36349e+06
1.35207e+06
1.34059e+06
1.32906e+06
1.31748e+06
1.30584e+06
1.29415e+06
1.2824e+06
1.27059e+06
1.25872e+06
1.24679e+06
1.23482e+06
1.22279e+06
1.21071e+06
1.19859e+06
1.18643e+06
1.17423e+06
1.16201e+06
1.14978e+06
1.13753e+06
1.12526e+06
1.11298e+06
1.10068e+06
1.08836e+06
1.07602e+06
1.06366e+06
1.05126e+06
1.03884e+06
1.02637e+06
1.01387e+06
1.00133e+06
988760
976153
963520
950868
938204
925536
912870
900208
887552
874900
862246
849586
836912
824224
811524
798813
786094
773374
760656
747945
735244
722554
709873
697201
684536
671877
659223
646574
633933
621308
608709
596152
583650
571214
558844
546535
534281
522078
509923
497816
485760
473758
461813
449928
438107
426354
414671
403064
391535
380088
368725
357450
346268
335182
324198
313320
302552
291899
281366
270955
260664
250485
1.98623e+06
1.986e+06
1.98556e+06
1.98492e+06
1.98406e+06
1.98298e+06
1.98169e+06
1.98018e+06
1.97845e+06
1.9765e+06
1.97433e+06
1.97195e+06
1.96935e+06
1.96653e+06
1.9635e+06
1.96027e+06
1.95682e+06
1.95317e+06
1.94932e+06
1.94528e+06
1.94104e+06
1.93661e+06
1.93199e+06
1.9272e+06
1.92222e+06
1.91707e+06
1.91175e+06
1.90627e+06
1.90062e+06
1.89481e+06
1.88884e+06
1.88272e+06
1.87646e+06
1.87005e+06
1.8635e+06
1.85682e+06
1.85e+06
1.84304e+06
1.83596e+06
1.82874e+06
1.82139e+06
1.8139e+06
1.80628e+06
1.79852e+06
1.79064e+06
1.78262e+06
1.77448e+06
1.76621e+06
1.75783e+06
1.74933e+06
1.74073e+06
1.73203e+06
1.72323e+06
1.71433e+06
1.70535e+06
1.69629e+06
1.68713e+06
1.67789e+06
1.66857e+06
1.65916e+06
1.64966e+06
1.64007e+06
1.63039e+06
1.62061e+06
1.61075e+06
1.6008e+06
1.59076e+06
1.58064e+06
1.57044e+06
1.56015e+06
1.54978e+06
1.53935e+06
1.52884e+06
1.51826e+06
1.50762e+06
1.49691e+06
1.48613e+06
1.47529e+06
1.46439e+06
1.45342e+06
1.44238e+06
1.4313e+06
1.42015e+06
1.40895e+06
1.39771e+06
1.38641e+06
1.37508e+06
1.36369e+06
1.35226e+06
1.34078e+06
1.32924e+06
1.31765e+06
1.30601e+06
1.29431e+06
1.28255e+06
1.27074e+06
1.25886e+06
1.24693e+06
1.23495e+06
1.22291e+06
1.21083e+06
1.19871e+06
1.18654e+06
1.17435e+06
1.16213e+06
1.14989e+06
1.13764e+06
1.12536e+06
1.11308e+06
1.10077e+06
1.08845e+06
1.0761e+06
1.06373e+06
1.05133e+06
1.0389e+06
1.02644e+06
1.01394e+06
1.0014e+06
988823
976215
963582
950931
938269
925602
912938
900279
887626
874975
862324
849665
836994
824309
811611
798899
786179
773454
760731
748015
735308
722613
709927
697249
684578
671915
659259
646608
633966
621339
608738
596177
583671
571231
558856
546543
534286
522080
509923
497816
485760
473758
461813
449929
438108
426355
414672
403064
391533
380084
368720
357443
346258
335169
324180
313295
302519
291855
281306
270875
260559
250350
1.99408e+06
1.99383e+06
1.99336e+06
1.99266e+06
1.99174e+06
1.99058e+06
1.9892e+06
1.98758e+06
1.98574e+06
1.98366e+06
1.98136e+06
1.97883e+06
1.97607e+06
1.9731e+06
1.96991e+06
1.96651e+06
1.96289e+06
1.95907e+06
1.95504e+06
1.95082e+06
1.94641e+06
1.9418e+06
1.93702e+06
1.93205e+06
1.9269e+06
1.92159e+06
1.9161e+06
1.91045e+06
1.90464e+06
1.89868e+06
1.89256e+06
1.8863e+06
1.8799e+06
1.87335e+06
1.86667e+06
1.85986e+06
1.85292e+06
1.84585e+06
1.83864e+06
1.83131e+06
1.82385e+06
1.81626e+06
1.80853e+06
1.80068e+06
1.79269e+06
1.78458e+06
1.77635e+06
1.76799e+06
1.75952e+06
1.75094e+06
1.74225e+06
1.73347e+06
1.7246e+06
1.71563e+06
1.70658e+06
1.69745e+06
1.68824e+06
1.67894e+06
1.66957e+06
1.6601e+06
1.65056e+06
1.64092e+06
1.6312e+06
1.62139e+06
1.61149e+06
1.6015e+06
1.59144e+06
1.58128e+06
1.57105e+06
1.56074e+06
1.55035e+06
1.53988e+06
1.52935e+06
1.51876e+06
1.50809e+06
1.49736e+06
1.48657e+06
1.4757e+06
1.46477e+06
1.45378e+06
1.44272e+06
1.43161e+06
1.42044e+06
1.40923e+06
1.39796e+06
1.38665e+06
1.3753e+06
1.3639e+06
1.35246e+06
1.34097e+06
1.32942e+06
1.31783e+06
1.30618e+06
1.29447e+06
1.28271e+06
1.27089e+06
1.259e+06
1.24707e+06
1.23508e+06
1.22304e+06
1.21095e+06
1.19883e+06
1.18666e+06
1.17447e+06
1.16225e+06
1.15001e+06
1.13775e+06
1.12547e+06
1.11318e+06
1.10087e+06
1.08854e+06
1.07618e+06
1.06381e+06
1.05141e+06
1.03897e+06
1.02651e+06
1.014e+06
1.00146e+06
988886
976279
963647
950998
938337
925672
913009
900351
887698
875048
862398
849741
837072
824390
811693
798980
786255
773524
760795
748074
735362
722662
709971
697289
684614
671948
659290
646638
633995
621367
608765
596202
583694
571250
558872
546555
534294
522086
509927
497819
485763
473761
461816
449932
438111
426358
414674
403065
391533
380082
368716
357437
346249
335156
324162
313270
302485
291810
281247
270798
260458
250224
2.00295e+06
2.00267e+06
2.00215e+06
2.00139e+06
2.00039e+06
1.99914e+06
1.99764e+06
1.9959e+06
1.99391e+06
1.99169e+06
1.98922e+06
1.98652e+06
1.98359e+06
1.98043e+06
1.97705e+06
1.97344e+06
1.96963e+06
1.96561e+06
1.96138e+06
1.95696e+06
1.95234e+06
1.94754e+06
1.94255e+06
1.93739e+06
1.93205e+06
1.92654e+06
1.92087e+06
1.91504e+06
1.90906e+06
1.90292e+06
1.89664e+06
1.89021e+06
1.88365e+06
1.87695e+06
1.87013e+06
1.86317e+06
1.85609e+06
1.84888e+06
1.84154e+06
1.83408e+06
1.8265e+06
1.81879e+06
1.81095e+06
1.80299e+06
1.79489e+06
1.78668e+06
1.77835e+06
1.7699e+06
1.76133e+06
1.75266e+06
1.74389e+06
1.73503e+06
1.72608e+06
1.71704e+06
1.70791e+06
1.69871e+06
1.68943e+06
1.68008e+06
1.67064e+06
1.66112e+06
1.65152e+06
1.64183e+06
1.63206e+06
1.62221e+06
1.61228e+06
1.60226e+06
1.59215e+06
1.58197e+06
1.5717e+06
1.56136e+06
1.55094e+06
1.54046e+06
1.52991e+06
1.51929e+06
1.50861e+06
1.49786e+06
1.48704e+06
1.47615e+06
1.46519e+06
1.45417e+06
1.44308e+06
1.43194e+06
1.42075e+06
1.40951e+06
1.39823e+06
1.3869e+06
1.37553e+06
1.36412e+06
1.35267e+06
1.34117e+06
1.32961e+06
1.31801e+06
1.30635e+06
1.29463e+06
1.28286e+06
1.27103e+06
1.25914e+06
1.2472e+06
1.2352e+06
1.22316e+06
1.21108e+06
1.19895e+06
1.18679e+06
1.1746e+06
1.16238e+06
1.15013e+06
1.13787e+06
1.12558e+06
1.11328e+06
1.10096e+06
1.08863e+06
1.07627e+06
1.06389e+06
1.05148e+06
1.03905e+06
1.02658e+06
1.01407e+06
1.00153e+06
988949
976344
963715
951068
938409
925744
913081
900422
887768
875117
862466
849810
837143
824463
811765
799048
786318
773581
760846
748120
735404
722701
710006
697321
684644
671976
659316
646663
634020
621392
608790
596227
583717
571271
558891
546571
534307
522096
509936
497827
485770
473768
461823
449938
438117
426363
414679
403069
391536
380083
368714
357432
346241
335144
324145
313247
302453
291767
281190
270723
260363
250105
2.01291e+06
2.0126e+06
2.01203e+06
2.01119e+06
2.01009e+06
2.00872e+06
2.00709e+06
2.0052e+06
2.00304e+06
2.00064e+06
1.99798e+06
1.99507e+06
1.99193e+06
1.98854e+06
1.98493e+06
1.9811e+06
1.97705e+06
1.9728e+06
1.96834e+06
1.96368e+06
1.95884e+06
1.95381e+06
1.9486e+06
1.94321e+06
1.93766e+06
1.93194e+06
1.92606e+06
1.92002e+06
1.91384e+06
1.90751e+06
1.90104e+06
1.89443e+06
1.88769e+06
1.88082e+06
1.87382e+06
1.86671e+06
1.85947e+06
1.85211e+06
1.84463e+06
1.83703e+06
1.82931e+06
1.82147e+06
1.81351e+06
1.80543e+06
1.79722e+06
1.7889e+06
1.78046e+06
1.77191e+06
1.76326e+06
1.7545e+06
1.74564e+06
1.73669e+06
1.72765e+06
1.71853e+06
1.70933e+06
1.70005e+06
1.6907e+06
1.68128e+06
1.67178e+06
1.6622e+06
1.65254e+06
1.6428e+06
1.63298e+06
1.62309e+06
1.61311e+06
1.60305e+06
1.5929e+06
1.58268e+06
1.57238e+06