/*--------------------------------*- C++ -*----------------------------------*\
  =========                 |
  \\      /  F ield         | OpenFOAM: The Open Source CFD Toolbox
   \\    /   O peration     | Website:  https://openfoam.org
    \\  /    A nd           | Version:  6
     \\/     M anipulation  |
\*---------------------------------------------------------------------------*/
FoamFile
{
    version     2.0;
    format      ascii;
    class       volVectorField;
    location    "0.15";
    object      U_0;
}
// * * * * * * * * * * * * * * * * * * * * * * * * * * * * * * * * * * * * * //

dimensions      [0 1 -1 0 0 0 0];

internalField   nonuniform List<vector> 
12225
(
(9.87962 0.0321608 0)
(9.62206 0.0535185 0)
(9.23945 0.0818867 0)
(8.90592 0.0769102 0)
(8.67564 0.0458935 0)
(8.49454 0.0268141 0)
(8.281 0.0268214 0)
(8.0078 0.0279851 0)
(7.71408 0.0195349 0)
(7.44672 0.00685873 0)
(7.22341 0.000253592 0)
(7.02749 0.00381201 0)
(6.83975 0.0136083 0)
(6.63636 0.0226314 0)
(6.458 0.0261121 0)
(6.25091 0.0351281 0)
(6.12566 0.0280835 0)
(5.93688 0.0298841 0)
(9.92789 -0.082575 0)
(10.0564 0.0250304 0)
(10.1153 0.0699489 0)
(10.1085 0.068375 0)
(10.0742 0.0518785 0)
(10.0684 0.0507794 0)
(10.0921 0.0750374 0)
(10.1109 0.106111 0)
(10.1085 0.122693 0)
(10.0933 0.12065 0)
(10.0806 0.110567 0)
(10.073 0.102452 0)
(10.0641 0.103525 0)
(10.0392 0.105307 0)
(10.002 0.105582 0)
(9.94178 0.0996099 0)
(9.8907 0.091206 0)
(9.84902 0.0848881 0)
(10.0366 0.161189 0)
(9.96825 0.102715 0)
(10.0263 0.0608495 0)
(10.1775 0.0450727 0)
(10.2761 0.0350171 0)
(10.3011 0.0323902 0)
(10.2927 0.0425186 0)
(10.2866 0.0539006 0)
(10.2951 0.0542363 0)
(10.309 0.0449328 0)
(10.3166 0.0370442 0)
(10.3117 0.0386864 0)
(10.2975 0.0511935 0)
(10.2781 0.0650601 0)
(10.2583 0.0764407 0)
(10.2392 0.0816977 0)
(10.2292 0.0802049 0)
(10.2284 0.0702467 0)
(9.9754 -0.00229692 0)
(10.0504 0.0607418 0)
(10.0989 0.0733031 0)
(10.0991 0.0709437 0)
(10.0317 0.055472 0)
(9.95645 0.0559582 0)
(9.92705 0.0791596 0)
(9.94832 0.101804 0)
(9.99917 0.106054 0)
(10.0564 0.0954409 0)
(10.1083 0.0845089 0)
(10.1522 0.0817944 0)
(10.1893 0.0873897 0)
(10.2208 0.0947886 0)
(10.2458 0.0973662 0)
(10.2644 0.0921833 0)
(10.2806 0.0799522 0)
(10.2977 0.0610721 0)
(10.0887 0.112382 0)
(10.0536 0.00203052 0)
(10.1049 -0.00810848 0)
(10.183 0.0384828 0)
(10.1746 0.0515699 0)
(10.0946 0.0341579 0)
(10.0238 0.0181297 0)
(10.0045 0.0117646 0)
(10.0277 0.00859564 0)
(10.0655 0.00633468 0)
(10.1005 0.00961068 0)
(10.1298 0.0212535 0)
(10.1555 0.0404215 0)
(10.1792 0.0609962 0)
(10.2002 0.0760101 0)
(10.2186 0.0833055 0)
(10.2362 0.0809087 0)
(10.253 0.0658904 0)
(9.98367 0.127799 0)
(10.1637 0.0919864 0)
(10.2112 0.0518322 0)
(10.2946 0.0589434 0)
(10.3775 0.0948334 0)
(10.4008 0.130109 0)
(10.3657 0.142465 0)
(10.3009 0.128833 0)
(10.2305 0.100868 0)
(10.1644 0.073598 0)
(10.1094 0.0576135 0)
(10.0742 0.0549632 0)
(10.0633 0.0611324 0)
(10.0771 0.068966 0)
(10.1101 0.0720051 0)
(10.1544 0.0676203 0)
(10.2028 0.0547208 0)
(10.2458 0.0335567 0)
(10.2824 0.0866589 0)
(10.2419 -0.0239796 0)
(10.2455 -0.0178904 0)
(10.2613 0.0107781 0)
(10.2536 0.0160522 0)
(10.241 0.0184951 0)
(10.2319 0.0300237 0)
(10.2158 0.0449113 0)
(10.1873 0.055247 0)
(10.1528 0.0580071 0)
(10.1259 0.0546895 0)
(10.119 0.0484937 0)
(10.1355 0.0419414 0)
(10.1701 0.0364189 0)
(10.2151 0.0320226 0)
(10.2572 0.0266669 0)
(10.291 0.0219071 0)
(10.3077 0.013071 0)
(10.2229 0.0832107 0)
(10.2389 0.0427031 0)
(10.2511 0.000703247 0)
(10.2406 0.0274897 0)
(10.2138 0.0789122 0)
(10.1943 0.122661 0)
(10.1911 0.144696 0)
(10.1953 0.141963 0)
(10.1969 0.119543 0)
(10.1878 0.0876366 0)
(10.1668 0.0577628 0)
(10.1391 0.0376282 0)
(10.1153 0.0292485 0)
(10.1023 0.0294127 0)
(10.1075 0.0338173 0)
(10.1296 0.0384366 0)
(10.1659 0.040258 0)
(10.2126 0.0390951 0)
(9.93684 0.0976762 0)
(10.0686 -0.0191015 0)
(10.1388 0.00222457 0)
(10.1107 0.0604108 0)
(10.0735 0.0772716 0)
(10.0793 0.0766346 0)
(10.1124 0.0771242 0)
(10.1412 0.0815398 0)
(10.1504 0.0889467 0)
(10.1373 0.0958993 0)
(10.1104 0.0969885 0)
(10.0822 0.0872914 0)
(10.064 0.0662738 0)
(10.0601 0.0373299 0)
(10.0709 0.00592383 0)
(10.0935 -0.0222371 0)
(10.1239 -0.0450746 0)
(10.1577 -0.0599497 0)
(10.0629 0.0844102 0)
(10.0782 0.0419779 0)
(9.95687 0.0193902 0)
(9.86167 0.0327504 0)
(9.84045 0.035725 0)
(9.89937 0.0381342 0)
(9.98271 0.0483402 0)
(10.0373 0.0634018 0)
(10.0543 0.0753725 0)
(10.0544 0.0780708 0)
(10.0607 0.0710701 0)
(10.0841 0.0582419 0)
(10.1201 0.0441687 0)
(10.1608 0.0317216 0)
(10.1972 0.0212163 0)
(10.2274 0.0115725 0)
(10.2487 0.00180623 0)
(10.2639 -0.00877218 0)
(9.9788 0.14996 0)
(10.0928 -0.00653132 0)
(10.1837 0.0734008 0)
(10.2005 0.128555 0)
(10.1597 0.0943423 0)
(10.097 0.0591938 0)
(10.0366 0.0649956 0)
(10.0066 0.0942165 0)
(10.0194 0.114963 0)
(10.0644 0.110489 0)
(10.1204 0.083452 0)
(10.1699 0.0455715 0)
(10.2024 0.00806657 0)
(10.2175 -0.0225425 0)
(10.219 -0.0443453 0)
(10.2145 -0.057426 0)
(10.2048 -0.0638494 0)
(10.1988 -0.0646087 0)
(10.034 -0.0622449 0)
(9.89584 -0.0350515 0)
(9.9064 0.00247225 0)
(9.90215 0.0528867 0)
(9.86891 0.0784367 0)
(9.85281 0.0893987 0)
(9.87306 0.0840936 0)
(9.92803 0.0645554 0)
(9.99926 0.0420731 0)
(10.0627 0.0266272 0)
(10.1036 0.0212004 0)
(10.1197 0.0226444 0)
(10.1148 0.0252404 0)
(10.0976 0.0247271 0)
(10.0765 0.0183442 0)
(10.0604 0.00756007 0)
(10.0525 -0.00700005 0)
(10.0558 -0.0217163 0)
(9.95861 0.0625615 0)
(10.1094 -0.00555931 0)
(10.1621 0.0469227 0)
(10.1584 0.110714 0)
(10.1685 0.0934945 0)
(10.212 0.044192 0)
(10.25 0.0161963 0)
(10.256 0.0188177 0)
(10.2304 0.033155 0)
(10.1883 0.0409703 0)
(10.1476 0.0373612 0)
(10.119 0.026521 0)
(10.1047 0.0137056 0)
(10.1002 0.00125041 0)
(10.1053 -0.0106738 0)
(10.1128 -0.0225881 0)
(10.1277 -0.034781 0)
(10.1363 -0.0451461 0)
(10.0134 -0.0267407 0)
(9.86913 -0.0507834 0)
(9.77571 0.0383817 0)
(9.75301 0.0656459 0)
(9.80095 0.0531683 0)
(9.89713 0.0428487 0)
(9.99602 0.046662 0)
(10.0719 0.0589618 0)
(10.1159 0.068968 0)
(10.1324 0.0704891 0)
(10.1345 0.0650282 0)
(10.1338 0.0553537 0)
(10.1369 0.0424803 0)
(10.1461 0.0242569 0)
(10.1633 0.000998411 0)
(10.1889 -0.0244486 0)
(10.2191 -0.0485744 0)
(10.2549 -0.0639222 0)
(9.94775 -0.0522865 0)
(9.99245 0.013279 0)
(9.99385 0.112857 0)
(10.0234 0.0901968 0)
(10.1102 0.00610095 0)
(10.1653 -0.0471332 0)
(10.1492 -0.0372519 0)
(10.0982 0.0104653 0)
(10.0542 0.0545603 0)
(10.0348 0.0712686 0)
(10.0401 0.0612069 0)
(10.0588 0.0356965 0)
(10.0753 0.00563801 0)
(10.0804 -0.0231803 0)
(10.0713 -0.0499538 0)
(10.0561 -0.0727131 0)
(10.038 -0.0930587 0)
(10.0299 -0.105999 0)
(9.95127 0.0394491 0)
(9.91182 0.0507312 0)
(9.95684 0.00428748 0)
(10.0189 -0.0359023 0)
(10.0654 -0.0585433 0)
(10.0961 -0.0445965 0)
(10.1156 -0.00294755 0)
(10.1398 0.0297038 0)
(10.1764 0.0300341 0)
(10.2203 0.00793586 0)
(10.2609 -0.0103324 0)
(10.2855 -0.00826771 0)
(10.286 0.0114895 0)
(10.2628 0.0339648 0)
(10.2249 0.042379 0)
(10.1825 0.031096 0)
(10.1456 0.000333359 0)
(10.1173 -0.0378515 0)
(10.1235 0.0421461 0)
(10.046 0.0985015 0)
(9.93076 0.0513157 0)
(9.90844 -0.0326769 0)
(9.92012 -0.0668449 0)
(9.93504 -0.043191 0)
(9.9494 0.00386568 0)
(9.96174 0.0369588 0)
(9.96653 0.0416103 0)
(9.96527 0.0297426 0)
(9.96642 0.0215946 0)
(9.9766 0.0266999 0)
(9.9967 0.0402799 0)
(10.0256 0.049827 0)
(10.0599 0.0436553 0)
(10.0944 0.0195213 0)
(10.1244 -0.0192056 0)
(10.1443 -0.0607931 0)
(9.94219 0.0287691 0)
(9.95928 0.0824178 0)
(10.0375 0.0836214 0)
(10.0579 0.00729308 0)
(10.0103 -0.0822622 0)
(9.9587 -0.109065 0)
(9.94554 -0.0702308 0)
(9.96373 -0.0167953 0)
(9.99161 0.00755652 0)
(10.0194 -0.00277767 0)
(10.0471 -0.0285269 0)
(10.0767 -0.0501456 0)
(10.1081 -0.0601959 0)
(10.1409 -0.0619377 0)
(10.1707 -0.0613955 0)
(10.1921 -0.0630254 0)
(10.1996 -0.0659371 0)
(10.1897 -0.0684699 0)
(10.0713 0.0852838 0)
(9.96576 0.0457063 0)
(9.9913 0.00938697 0)
(10.0374 0.0214058 0)
(10.0404 0.0412662 0)
(10.0265 0.0321047 0)
(10.0209 -0.00546746 0)
(10.0188 -0.0493684 0)
(10.0064 -0.0824358 0)
(9.98292 -0.0998047 0)
(9.95705 -0.105164 0)
(9.93557 -0.104948 0)
(9.92324 -0.102663 0)
(9.92244 -0.098324 0)
(9.93287 -0.0877947 0)
(9.95019 -0.0692423 0)
(9.96934 -0.0416983 0)
(9.9869 -0.00787555 0)
(10.0349 0.0256747 0)
(10.0737 0.0410458 0)
(10.084 0.015528 0)
(10.0852 -0.018321 0)
(10.0363 -0.0467366 0)
(9.96822 -0.0441689 0)
(9.92561 -0.0100316 0)
(9.91488 0.032452 0)
(9.92344 0.06022 0)
(9.94582 0.0625616 0)
(9.97814 0.0402911 0)
(10.0107 0.00119815 0)
(10.0344 -0.0440026 0)
(10.0456 -0.0850212 0)
(10.0453 -0.114831 0)
(10.0375 -0.129469 0)
(10.0269 -0.129781 0)
(10.0189 -0.116525 0)
(10.2256 0.0181066 0)
(10.167 -0.0527087 0)
(10.1369 0.000413129 0)
(10.131 0.0749518 0)
(10.1028 0.111308 0)
(10.0718 0.0958649 0)
(10.0694 0.0455187 0)
(10.0917 -0.0103721 0)
(10.1217 -0.0528739 0)
(10.1526 -0.0786755 0)
(10.1798 -0.0914938 0)
(10.1952 -0.0943036 0)
(10.1942 -0.0883431 0)
(10.1786 -0.0756618 0)
(10.1542 -0.059642 0)
(10.1266 -0.044408 0)
(10.1001 -0.0324377 0)
(10.0777 -0.0256305 0)
(10.2393 0.0748093 0)
(10.2393 0.0492252 0)
(10.2511 0.0378642 0)
(10.242 0.0271315 0)
(10.1975 0.0339216 0)
(10.1301 0.0386397 0)
(10.0725 0.0156785 0)
(10.0417 -0.0330939 0)
(10.0293 -0.0859034 0)
(10.0269 -0.123329 0)
(10.0334 -0.137845 0)
(10.0473 -0.131812 0)
(10.0654 -0.112574 0)
(10.0834 -0.0887439 0)
(10.0969 -0.0671895 0)
(10.1041 -0.0506275 0)
(10.1049 -0.0394254 0)
(10.1032 -0.0314221 0)
(9.90505 -0.0827817 0)
(9.98607 -0.0225331 0)
(9.99863 0.0537986 0)
(9.98623 0.140185 0)
(9.98783 0.183714 0)
(10.0382 0.14722 0)
(10.1233 0.07035 0)
(10.1974 0.008927 0)
(10.223 -0.0166428 0)
(10.1955 -0.0217823 0)
(10.1358 -0.0275316 0)
(10.0696 -0.0392886 0)
(10.0142 -0.0498228 0)
(9.97668 -0.0512448 0)
(9.95525 -0.0437735 0)
(9.94674 -0.03253 0)
(9.94646 -0.0243332 0)
(9.95431 -0.0245665 0)
(10.1497 -0.0753168 0)
(9.99426 -0.00204458 0)
(9.92977 0.0435763 0)
(9.91165 0.0339479 0)
(9.98197 0.0235738 0)
(10.043 0.000110843 0)
(10.0368 -0.0326273 0)
(9.9902 -0.0542382 0)
(9.95066 -0.0584882 0)
(9.93913 -0.0567188 0)
(9.94742 -0.0602791 0)
(9.95757 -0.0692381 0)
(9.95874 -0.0763817 0)
(9.95152 -0.075857 0)
(9.9442 -0.0689678 0)
(9.9435 -0.0605502 0)
(9.95298 -0.0559095 0)
(9.97073 -0.0584682 0)
(9.91943 -0.0195717 0)
(9.92934 0.0569361 0)
(9.99739 0.0886415 0)
(10.0439 0.0782021 0)
(10.0475 0.0567738 0)
(10.0554 0.0350874 0)
(10.109 0.0118851 0)
(10.2004 -0.00842009 0)
(10.2898 -0.0195002 0)
(10.3384 -0.019155 0)
(10.3303 -0.0100601 0)
(10.2732 0.00164255 0)
(10.1911 0.00906163 0)
(10.1113 0.00726161 0)
(10.0524 -0.00539097 0)
(10.0197 -0.0258472 0)
(10.0092 -0.0504667 0)
(10.0126 -0.0728589 0)
(10.1535 -0.0342513 0)
(10.0969 -0.00767595 0)
(10.0239 0.00744527 0)
(10.0033 0.0390807 0)
(10.0176 0.0534387 0)
(10.0261 0.0151918 0)
(10.0071 -0.0531376 0)
(9.96604 -0.103942 0)
(9.92286 -0.111106 0)
(9.89874 -0.0804499 0)
(9.90408 -0.0350795 0)
(9.9369 0.00226851 0)
(9.98756 0.0188414 0)
(10.0441 0.0141103 0)
(10.0944 -0.00477488 0)
(10.129 -0.0287252 0)
(10.1443 -0.051479 0)
(10.1399 -0.070063 0)
(9.70185 -0.0968073 0)
(9.68345 0.0595091 0)
(9.74973 0.0812241 0)
(9.89162 0.0588882 0)
(10.0281 0.0271679 0)
(10.1031 0.0012474 0)
(10.1201 -0.0104441 0)
(10.109 -0.0126436 0)
(10.0969 -0.011795 0)
(10.101 -0.0116763 0)
(10.1258 -0.01495 0)
(10.1635 -0.0231449 0)
(10.2015 -0.0353944 0)
(10.231 -0.048273 0)
(10.2494 -0.0582356 0)
(10.2563 -0.0637708 0)
(10.2542 -0.0655872 0)
(10.2426 -0.0665139 0)
(9.80444 -0.189 0)
(10.0196 -0.0481933 0)
(9.91549 -0.0196462 0)
(9.82743 -0.0256981 0)
(9.83706 -0.0226965 0)
(9.89969 -0.0220896 0)
(9.98486 -0.0344488 0)
(10.0749 -0.0558382 0)
(10.1502 -0.0734909 0)
(10.1982 -0.0780544 0)
(10.2198 -0.0691692 0)
(10.2244 -0.0532271 0)
(10.224 -0.0382761 0)
(10.2283 -0.0295872 0)
(10.242 -0.0272726 0)
(10.2624 -0.0288911 0)
(10.2854 -0.0305841 0)
(10.3035 -0.0300813 0)
(9.7438 -0.0384775 0)
(9.75461 0.0048233 0)
(9.87607 0.0203866 0)
(10.0779 0.0066003 0)
(10.2273 -0.0206509 0)
(10.2761 -0.0571288 0)
(10.2621 -0.0922759 0)
(10.2287 -0.110854 0)
(10.1934 -0.105487 0)
(10.1633 -0.0832003 0)
(10.1441 -0.059436 0)
(10.1369 -0.0473504 0)
(10.1372 -0.050872 0)
(10.1392 -0.0655227 0)
(10.1384 -0.0826968 0)
(10.135 -0.0958259 0)
(10.1291 -0.101412 0)
(10.1269 -0.100199 0)
(9.78439 -0.0367921 0)
(9.73602 0.00425405 0)
(9.64616 0.000112451 0)
(9.5244 -0.035736 0)
(9.38769 -0.0501026 0)
(9.23744 -0.0381167 0)
(9.07398 -0.0221025 0)
(8.89307 -0.0169441 0)
(8.7037 -0.0196387 0)
(8.53185 -0.0217793 0)
(8.39605 -0.0203989 0)
(8.29177 -0.0176077 0)
(8.19999 -0.0160242 0)
(8.10474 -0.0164702 0)
(7.99759 -0.018391 0)
(7.88074 -0.020459 0)
(7.7572 -0.0221216 0)
(7.63815 -0.0221323 0)
(0.0325265 -0.0815248 -5.84332e-20)
(0.0781919 -0.0807014 5.80013e-20)
(0.106299 -0.0524291 0)
(0.100812 0.00168864 0)
(0.0587032 0.0640468 0)
(-0.00871057 0.104217 -5.63112e-20)
(-0.0775104 0.0908447 0)
(-0.133457 0.0390373 0)
(-0.185498 0.00210349 0)
(-0.255103 0.00117377 0)
(-0.355375 0.0471737 5.41864e-20)
(-0.496706 0.140595 0)
(-0.681486 0.214842 0)
(-0.862801 0.18408 0)
(-0.972971 0.093792 0)
(-1.01453 0.0359371 5.20293e-20)
(-1.02087 -4.14534e-05 0)
(-0.992702 -0.0434699 0)
(-0.931865 -0.078595 0)
(-0.848128 -0.0972351 0)
(-0.747196 -0.110119 0)
(-0.631794 -0.122744 0)
(-0.505417 -0.133195 0)
(-0.372253 -0.139591 4.88019e-20)
(-0.23634 -0.142008 -4.84149e-20)
(-0.101593 -0.141126 4.80296e-20)
(0.0271081 -0.136559 4.76342e-20)
(0.144678 -0.128336 0)
(0.248339 -0.117179 0)
(0.334904 -0.1021 -4.64303e-20)
(0.400521 -0.0828161 -4.60349e-20)
(0.441285 -0.0600077 0)
(0.4542 -0.0351204 0)
(0.43662 -0.0106691 -4.48564e-20)
(0.391491 0.0103868 0)
(0.324076 0.026171 0)
(0.239369 0.037091 4.36959e-20)
(0.141675 0.0446904 0)
(0.0344206 0.0499406 4.29375e-20)
(-0.0782321 0.0532188 8.50949e-20)
(-0.192845 0.0553804 0)
(-0.308201 0.0573726 0)
(-0.423875 0.0602785 0)
(-0.540515 0.0639903 0)
(-0.658794 0.0683209 0)
(-0.779731 0.0749037 8.03865e-20)
(-0.903932 0.0850156 7.9601e-20)
(-1.03073 0.0952648 7.88105e-20)
(-1.1543 0.0986425 0)
(-1.26839 0.0934589 -7.7212e-20)
(-1.36722 0.0825653 0)
(-1.44743 0.0672858 7.55865e-20)
(-1.50744 0.0490495 7.47613e-20)
(-1.54578 0.0294076 0)
(-1.55984 0.00685275 0)
(-1.5443 -0.021945 0)
(-1.49282 -0.0560962 7.13786e-20)
(-1.40048 -0.088329 0)
(-1.26617 -0.113442 0)
(-1.09278 -0.131613 0)
(-0.889437 -0.14567 0)
(-0.666942 -0.150653 0)
(-0.438043 -0.1404 0)
(-0.215722 -0.117837 0)
(-0.015214 -0.0913149 0)
(0.160737 -0.0649516 -6.41079e-20)
(0.315796 -0.0437411 0)
(0.455447 -0.0337594 0)
(0.588149 -0.0294182 6.1771e-20)
(0.716574 -0.0447502 6.10084e-20)
(0.855668 -0.0748253 0)
(0.999264 -0.0901738 -5.952e-20)
(1.1318 -0.104989 5.88042e-20)
(1.20761 -0.0934036 0)
(1.23937 -0.0794894 -5.74318e-20)
(1.32814 -0.0765425 0)
(1.40239 -0.00318268 0)
(1.43341 0.0725942 5.54895e-20)
(1.44815 0.0425252 0)
(1.471 -0.0368849 -5.42637e-20)
(1.52383 -0.0557281 0)
(1.56756 -0.0461714 5.30736e-20)
(1.57151 -0.0492645 5.25004e-20)
(1.56631 -0.0474739 5.1926e-20)
(1.57877 -0.034271 1.02706e-19)
(1.60707 0.0558953 -1.01559e-19)
(1.61079 -0.0741434 0)
(1.47133 0.128933 0)
(1.16574 0.255752 0)
(1.48095 -0.0965033 -9.69594e-20)
(1.59242 -0.146326 -9.58701e-20)
(1.07187 0.124754 9.50326e-20)
(0.467423 0.317689 0)
(-0.231838 0.330352 -9.39031e-20)
(-0.885947 0.334152 -9.33552e-20)
(-1.62045 0.341397 -9.28822e-20)
(-2.36116 0.367008 0)
(-3.17019 0.382913 0)
(-3.99054 0.392577 0)
(-4.83979 0.392738 -9.20198e-20)
(-5.67819 0.381635 0)
(-6.49305 0.355543 0)
(-7.24714 0.317028 9.22966e-20)
(-7.91803 0.266558 0)
(-8.46986 0.204419 0)
(-8.87399 0.131268 9.19703e-20)
(-9.10115 0.0536492 0)
(-9.13654 -0.0203939 0)
(-8.99028 -0.0872568 -8.917e-20)
(-8.70526 -0.145765 -8.76402e-20)
(-8.29028 -0.19172 0)
(-7.78993 -0.223344 8.41103e-20)
(-7.22884 -0.242272 0)
(-6.63828 -0.25056 -8.04395e-20)
(-6.03573 -0.251546 0)
(-5.43618 -0.247877 -7.69429e-20)
(-4.84636 -0.24213 -7.52876e-20)
(-4.27003 -0.235738 0)
(-3.70731 -0.229701 0)
(-3.15663 -0.224291 0)
(-2.61524 -0.219993 0)
(-2.07949 -0.218608 0)
(-1.54435 -0.222391 0)
(-1.00692 -0.227878 0)
(-0.494863 -0.217174 -6.41869e-20)
(-0.148542 -0.10027 6.30816e-20)
(0.290274 -0.148288 0)
(0.801996 -0.203932 0)
(1.49173 -0.15794 0)
(1.96847 0.0322309 0)
(2.1934 0.0386121 1.16703e-19)
(2.34768 -0.0911202 0)
(1.81306 0.167282 -1.13062e-19)
(1.57782 0.255313 1.11178e-19)
(1.7292 -0.0474647 0)
(2.48017 -0.177909 0)
(0.601183 0.81793 0)
(-4.83395 1.45602 -1.06961e-19)
(-8.59323 1.03277 -1.11787e-19)
(-10.9403 0.643403 0)
(-12.5327 0.384511 -1.22599e-19)
(-13.4819 0.200222 -1.25776e-19)
(-13.9689 0.0709619 1.27045e-19)
(-14.0751 -0.0297024 0)
(-13.8788 -0.111074 0)
(-13.4488 -0.181795 1.20774e-19)
(-12.766 -0.246858 0)
(-11.8504 -0.310297 0)
(-10.7057 -0.367114 0)
(-9.3966 -0.405845 0)
(-8.00269 -0.417633 -9.04639e-20)
(-6.61484 -0.401924 -8.49848e-20)
(-5.29889 -0.367587 0)
(-4.09964 -0.322958 -7.68909e-20)
(-3.03974 -0.276511 0)
(-2.12396 -0.232922 0)
(-1.3422 -0.194826 -7.00353e-20)
(-0.673557 -0.162741 0)
(-0.0885487 -0.136163 -6.71165e-20)
(0.442812 -0.115556 0)
(0.93673 -0.102768 0)
(1.39853 -0.0956142 -6.33166e-20)
(1.83581 -0.091192 0)
(2.2571 -0.0887007 -6.0884e-20)
(2.67406 -0.0876544 0)
(3.09313 -0.0886731 0)
(3.52418 -0.0904444 0)
(3.96798 -0.0930916 5.59882e-20)
(4.42944 -0.095758 0)
(4.90477 -0.098248 -5.35825e-20)
(5.39151 -0.0938931 0)
(5.85969 -0.0882552 0)
(6.31013 -0.0784272 0)
(6.7101 -0.0732172 0)
(7.09403 -0.0578703 0)
(7.41327 -0.0609375 0)
(7.76032 -0.0537595 0)
(8.03801 -0.0515879 9.07185e-20)
(8.34389 -0.00865728 0)
(8.45072 -0.0333085 0)
(-0.0168825 -0.0548792 1.75328e-19)
(-0.104433 0.0438123 -1.74045e-19)
(-0.193878 0.135979 0)
(-0.269972 0.189108 1.14261e-19)
(-0.333438 0.204837 0)
(-0.38871 0.197983 5.62541e-20)
(-0.460307 0.195503 -1.11688e-19)
(-0.564335 0.22048 -1.10827e-19)
(-0.697373 0.277422 0)
(-0.83747 0.349549 -1.09087e-19)
(-0.94724 0.40866 -5.40845e-20)
(-1.00172 0.42305 0)
(-1.01458 0.371725 0)
(-1.01162 0.258127 0)
(-0.998618 0.124463 0)
(-0.974461 0.00789778 -5.20369e-20)
(-0.929884 -0.0933112 0)
(-0.861546 -0.180117 1.02471e-19)
(-0.777176 -0.246504 0)
(-0.684097 -0.295814 0)
(-0.581351 -0.334641 -1.00025e-19)
(-0.470594 -0.364358 0)
(-0.355131 -0.384953 9.84322e-20)
(-0.23474 -0.397115 -4.88048e-20)
(-0.110568 -0.398931 4.84144e-20)
(0.0125358 -0.388121 -4.80184e-20)
(0.12799 -0.365171 -4.7613e-20)
(0.232377 -0.329974 0)
(0.324424 -0.286389 0)
(0.402229 -0.233162 4.64167e-20)
(0.461486 -0.170212 -4.60626e-20)
(0.497157 -0.0999269 0)
(0.505668 -0.0264366 0)
(0.486076 0.0462036 4.48525e-20)
(0.43868 0.113086 0)
(0.364533 0.170124 0)
(0.265821 0.214834 -4.36908e-20)
(0.147174 0.246489 0)
(0.0143102 0.265891 4.29547e-20)
(-0.127152 0.275309 -8.50642e-20)
(-0.272884 0.2789 0)
(-0.41954 0.28081 0)
(-0.564046 0.283302 -1.65443e-19)
(-0.704368 0.285697 -1.63887e-19)
(-0.838733 0.287167 -1.62335e-19)
(-0.965081 0.288001 8.0442e-20)
(-1.08308 0.28661 -7.95565e-20)
(-1.19489 0.277303 -2.36425e-19)
(-1.29855 0.256728 1.56077e-19)
(-1.39167 0.228525 7.71805e-20)
(-1.47836 0.195316 0)
(-1.55572 0.159363 -7.55634e-20)
(-1.6143 0.120888 7.48555e-20)
(-1.64747 0.0755671 0)
(-1.6554 0.0221733 0)
(-1.63684 -0.0420758 0)
(-1.58493 -0.120588 -7.13597e-20)
(-1.49082 -0.206021 0)
(-1.35483 -0.287949 1.39355e-19)
(-1.18665 -0.362251 0)
(-0.987501 -0.424063 1.36036e-19)
(-0.758724 -0.451801 0)
(-0.519076 -0.445363 -1.3286e-19)
(-0.273592 -0.4164 0)
(-0.0342684 -0.379261 1.29784e-19)
(0.193721 -0.345126 -6.41238e-20)
(0.397768 -0.315663 0)
(0.569557 -0.28921 -1.25054e-19)
(0.713588 -0.275326 -6.17467e-20)
(0.823097 -0.25931 -6.09873e-20)
(0.92501 -0.257326 0)
(1.05874 -0.259589 -5.94828e-20)
(1.20344 -0.187355 -5.87856e-20)
(1.3453 -0.0719255 0)
(1.4831 -0.0955238 5.74021e-20)
(1.60126 -0.185643 -1.13432e-19)
(1.63159 -0.114109 0)
(1.70116 -0.0037161 -5.54584e-20)
(1.87772 -0.0730001 0)
(2.00301 -0.175139 1.62631e-19)
(1.95656 -0.0933818 0)
(1.81263 0.0582256 -1.59142e-19)
(1.72659 0.044774 -5.24854e-20)
(1.72276 0.00917473 5.19303e-20)
(1.75967 -0.0192421 1.0273e-19)
(1.89601 -0.0473707 -1.01602e-19)
(1.65905 0.263333 0)
(1.62135 0.383437 0)
(1.87266 0.0222699 0)
(1.38041 0.101217 2.90828e-19)
(0.170621 0.634246 9.60542e-20)
(-0.82892 0.935171 -9.51307e-20)
(-1.62699 1.01845 0)
(-2.40873 1.02002 -9.39128e-20)
(-3.08499 1.02982 9.29525e-20)
(-3.77862 1.04006 9.24898e-20)
(-4.41764 1.06032 0)
(-5.06664 1.06881 0)
(-5.69046 1.07176 0)
(-6.31562 1.05726 9.17361e-20)
(-6.91772 1.02147 0)
(-7.49939 0.957999 -1.84656e-19)
(-8.03693 0.865617 -2.77153e-19)
(-8.5156 0.739056 1.85282e-19)
(-8.9063 0.576378 0)
(-9.18405 0.381277 9.27859e-20)
(-9.32393 0.16655 0)
(-9.31631 -0.0505307 1.81617e-19)
(-9.15252 -0.253822 -8.98522e-20)
(-8.82506 -0.430285 -8.82246e-20)
(-8.381 -0.568529 0)
(-7.84413 -0.663494 -2.52599e-19)
(-7.25589 -0.717862 1.6479e-19)
(-6.64007 -0.73933 8.03789e-20)
(-6.01938 -0.737975 0)
(-5.40469 -0.722757 7.68899e-20)
(-4.8037 -0.701094 2.25956e-19)
(-4.21809 -0.677865 0)
(-3.64742 -0.65596 1.44438e-19)
(-3.08942 -0.637051 1.41473e-19)
(-2.54145 -0.622979 1.38622e-19)
(-1.99908 -0.616625 0)
(-1.45331 -0.61828 0)
(-0.904983 -0.615054 0)
(-0.410963 -0.565537 -6.42614e-20)
(-0.0468443 -0.283432 -6.30582e-20)
(0.539578 -0.539369 0)
(1.27148 -0.792702 -1.21621e-19)
(1.94892 -0.594334 -1.19885e-19)
(2.42912 -0.171603 0)
(2.6437 0.034394 -1.16655e-19)
(2.27138 0.285047 -2.29908e-19)
(2.0311 0.326347 1.13015e-19)
(2.66308 -0.0772174 1.11271e-19)
(1.92742 0.286876 0)
(-1.17982 1.96146 0)
(-5.39855 3.33966 0)
(-9.16723 3.29696 1.06125e-19)
(-10.754 2.36615 -1.18797e-19)
(-11.9499 1.59107 -2.40436e-19)
(-12.709 0.9876 1.22436e-19)
(-13.2307 0.53353 -1.28728e-19)
(-13.4821 0.185081 -1.27083e-19)
(-13.511 -0.0973165 0)
(-13.3082 -0.333489 0)
(-12.8589 -0.540341 1.22361e-19)
(-12.1911 -0.73412 0)
(-11.2719 -0.924974 0)
(-10.1277 -1.10084 -2.08423e-19)
(-8.79583 -1.22492 0)
(-7.37547 -1.26372 -9.13959e-20)
(-5.96252 -1.21695 8.49257e-20)
(-4.63564 -1.11202 0)
(-3.44477 -0.978649 -7.72216e-20)
(-2.41141 -0.84438 0)
(-1.53689 -0.724273 0)
(-0.80352 -0.623625 7.00283e-20)
(-0.185394 -0.540379 -1.37116e-19)
(0.351453 -0.472736 6.70801e-20)
(0.837332 -0.421114 0)
(1.29095 -0.386925 0)
(1.72116 -0.365978 -6.34006e-20)
(2.13375 -0.352213 0)
(2.53503 -0.344128 -6.09682e-20)
(2.93456 -0.340754 0)
(3.34039 -0.342471 0)
(3.75964 -0.348024 0)
(4.19853 -0.356209 -5.59595e-20)
(4.65962 -0.364452 0)
(5.14302 -0.370829 5.35537e-20)
(5.63999 -0.365867 0)
(6.13876 -0.350801 0)
(6.61213 -0.321727 -1.00605e-19)
(7.05042 -0.295636 9.8599e-20)
(7.4432 -0.266754 0)
(7.82709 -0.254027 0)
(8.16588 -0.228536 0)
(8.49295 -0.231211 -2.72264e-19)
(8.8354 -0.135821 0)
(9.09456 -0.0734281 1.73555e-19)
(-0.060848 0.137094 4.23223e-23)
(-0.218059 0.252026 2.31992e-19)
(-0.341567 0.292384 0)
(-0.442574 0.29043 -2.28444e-19)
(-0.526302 0.284115 0)
(-0.604685 0.315825 0)
(-0.684449 0.385683 -6.74197e-23)
(-0.757489 0.454303 1.10741e-19)
(-0.81778 0.491864 1.09962e-19)
(-0.863548 0.496994 1.09049e-19)
(-0.891385 0.476179 0)
(-0.89538 0.423809 0)
(-0.877347 0.327316 -1.06667e-19)
(-0.85032 0.191051 -2.11735e-19)
(-0.819969 0.0447412 2.10137e-19)
(-0.769924 -0.0868212 0)
(-0.686369 -0.201373 2.06816e-19)
(-0.59058 -0.298306 -1.0252e-19)
(-0.508917 -0.372742 0)
(-0.433236 -0.434231 2.01855e-19)
(-0.347136 -0.488948 1.00061e-19)
(-0.257309 -0.528391 -1.98605e-19)
(-0.17119 -0.556504 -9.84527e-20)
(-0.0796278 -0.58157 0)
(0.0185545 -0.588066 1.93795e-19)
(0.114985 -0.561616 1.92161e-19)
(0.204201 -0.513363 0)
(0.290676 -0.450413 1.88937e-19)
(0.374151 -0.379946 0)
(0.449599 -0.295112 1.85787e-19)
(0.506498 -0.193394 9.20576e-20)
(0.53517 -0.0780183 0)
(0.530421 0.0448853 0)
(0.490993 0.167024 0)
(0.418255 0.280517 0)
(0.315331 0.378978 0)
(0.18662 0.457608 0)
(0.0368572 0.513727 1.73367e-19)
(-0.128836 0.546842 -2.5761e-19)
(-0.303438 0.560482 0)
(-0.479739 0.559632 0)
(-0.651247 0.545784 0)
(-0.813669 0.521966 -1.28576e-22)
(-0.967644 0.495691 1.63739e-19)
(-1.11297 0.475235 3.24539e-19)
(-1.24727 0.461791 -3.21455e-19)
(-1.37214 0.446167 -1.59277e-19)
(-1.48859 0.423459 1.57521e-19)
(-1.59513 0.398262 2.10318e-22)
(-1.69771 0.366591 1.54567e-19)
(-1.80048 0.322107 0)
(-1.89737 0.266433 1.51332e-19)
(-1.97929 0.198015 2.13001e-22)
(-2.03698 0.118127 0)
(-2.07944 0.0264843 0)
(-2.09524 -0.0742475 -1.44576e-19)
(-2.06258 -0.187962 0)
(-1.97107 -0.322826 0)
(-1.83268 -0.474079 1.39454e-19)
(-1.64724 -0.609077 2.75238e-19)
(-1.40512 -0.689808 -1.35852e-19)
(-1.13288 -0.71671 0)
(-0.859579 -0.713846 1.32691e-19)
(-0.599194 -0.680805 0)
(-0.357093 -0.620415 1.2985e-19)
(-0.130756 -0.542985 1.28168e-19)
(0.0769049 -0.464795 -2.53415e-19)
(0.258342 -0.393517 -1.25173e-19)
(0.413637 -0.336432 0)
(0.555225 -0.33324 2.4402e-19)
(0.673951 -0.390576 0)
(0.787726 -0.420697 3.56968e-19)
(0.943783 -0.411783 2.35062e-19)
(1.11922 -0.381696 2.32265e-19)
(1.22313 -0.318561 -2.29507e-19)
(1.32208 -0.229587 3.40261e-19)
(1.48414 -0.206791 0)
(1.6729 -0.304048 0)
(1.72022 -0.357801 -2.1923e-19)
(1.59981 -0.167034 -3.25402e-19)
(1.47493 0.111988 0)
(1.47535 0.159231 1.06154e-19)
(1.57849 0.0218562 0)
(1.75972 -0.151104 -3.11515e-19)
(1.91966 -0.169763 1.40991e-22)
(1.95791 0.0930375 -1.96443e-22)
(1.91085 0.349977 2.00902e-19)
(2.09452 0.207984 0)
(1.54693 0.40484 -1.96123e-19)
(0.0988773 1.14079 1.24709e-22)
(-1.08436 1.6166 0)
(-1.7914 1.70613 0)
(-2.41235 1.69033 0)
(-2.95289 1.64032 1.87126e-19)
(-3.45805 1.61109 0)
(-3.96236 1.59627 0)
(-4.45285 1.60114 0)
(-4.95971 1.60778 0)
(-5.48534 1.61465 0)
(-6.04611 1.60431 1.84815e-19)
(-6.63421 1.56796 0)
(-7.24498 1.49365 1.84568e-19)
(-7.85459 1.37027 1.84935e-19)
(-8.43099 1.18605 -1.85179e-19)
(-8.92324 0.936696 0)
(-9.28024 0.626373 -1.84605e-19)
(-9.46038 0.271165 0)
(-9.4458 -0.101717 -1.81565e-19)
(-9.24269 -0.457446 1.78897e-19)
(-8.87741 -0.763635 5.29327e-19)
(-8.38672 -0.999957 0)
(-7.81209 -1.15836 5.06842e-19)
(-7.19242 -1.24376 1.65972e-19)
(-6.55749 -1.27241 0)
(-5.92523 -1.26287 3.15759e-19)
(-5.30551 -1.23121 3.08759e-19)
(-4.70214 -1.18957 -4.52665e-19)
(-4.11584 -1.14608 0)
(-3.54536 -1.10534 -1.44353e-19)
(-2.98907 -1.07029 -1.41392e-19)
(-2.44525 -1.04288 -4.16203e-19)
(-1.90942 -1.02318 0)
(-1.372 -1.0078 0)
(-0.841154 -0.986128 0)
(-0.386267 -0.902809 -1.2873e-19)
(0.197363 -0.588195 0)
(0.855614 -1.11868 0)
(1.5742 -1.45215 1.21444e-19)
(2.27235 -1.12377 1.19753e-19)
(2.87034 -0.490917 0)
(2.9086 0.215088 0)
(2.33996 0.568348 2.29768e-19)
(2.4496 0.130129 0)
(1.70183 0.499786 -2.22482e-19)
(-1.01678 2.31212 -2.19623e-19)
(-4.75698 4.35002 0)
(-7.89796 5.22621 0)
(-9.37869 4.52543 2.28966e-19)
(-10.0568 3.31601 -8.58112e-21)
(-11.002 2.34375 -6.8415e-21)
(-11.7035 1.52601 0)
(-12.2539 0.869562 5.13368e-19)
(-12.5363 0.325479 0)
(-12.5875 -0.131416 0)
(-12.4139 -0.523061 0)
(-12.0334 -0.86623 -2.43215e-19)
(-11.4404 -1.19243 0)
(-10.6094 -1.52053 4.48473e-19)
(-9.52381 -1.8334 2.083e-19)
(-8.21875 -2.06463 0)
(-6.77715 -2.14311 1.81631e-19)
(-5.30995 -2.06145 0)
(-3.9105 -1.869 0)
(-2.64659 -1.61993 4.63443e-19)
(-1.55525 -1.36495 -2.97754e-19)
(-0.64629 -1.13629 0)
(0.0831466 -0.950951 -2.81007e-19)
(0.660276 -0.809746 1.36992e-19)
(1.13081 -0.706856 0)
(1.53783 -0.635132 0)
(1.9122 -0.587662 0)
(2.27055 -0.557106 3.80099e-19)
(2.6183 -0.536972 0)
(2.95964 -0.525998 1.21734e-19)
(3.29977 -0.52405 0)
(3.64693 -0.530577 0)
(4.00795 -0.543813 0)
(4.38941 -0.56156 0)
(4.79782 -0.580673 0)
(5.23746 -0.595053 0)
(5.70294 -0.592094 2.1002e-19)
(6.17784 -0.567343 0)
(6.63597 -0.524187 1.00566e-19)
(7.06143 -0.475863 -2.95934e-19)
(7.44838 -0.434546 0)
(7.81216 -0.405524 0)
(8.16492 -0.377518 1.85752e-19)
(8.49478 -0.354517 1.81552e-19)
(8.8246 -0.265603 -1.78139e-19)
(9.17966 -0.0952409 -1.73529e-19)
(-0.052734 0.384078 -3.50749e-19)
(-0.20885 0.503804 -3.48084e-19)
(-0.330546 0.524104 -2.30338e-19)
(-0.446356 0.511473 -1.14385e-19)
(-0.554272 0.497326 0)
(-0.649698 0.501074 2.25167e-19)
(-0.717698 0.509798 -1.11832e-19)
(-0.74928 0.51028 0)
(-0.754305 0.50023 -1.09967e-19)
(-0.743046 0.47792 0)
(-0.719413 0.436362 2.16888e-19)
(-0.686239 0.367885 0)
(-0.649509 0.268668 1.06744e-19)
(-0.614561 0.143984 2.11898e-19)
(-0.574468 0.00238376 -2.10285e-19)
(-0.512991 -0.154049 0)
(-0.438888 -0.312378 -2.0691e-19)
(-0.382745 -0.431969 0)
(-0.34308 -0.501445 0)
(-0.286955 -0.563877 -2.01891e-19)
(-0.208032 -0.622165 0)
(-0.123994 -0.64191 -1.1312e-22)
(-0.0526749 -0.647689 0)
(0.0162637 -0.6853 0)
(0.0909564 -0.710149 1.14954e-22)
(0.163844 -0.680154 -1.92083e-19)
(0.245457 -0.629567 -1.90587e-19)
(0.346356 -0.580568 -1.88838e-19)
(0.452469 -0.52093 0)
(0.543313 -0.42446 -3.71519e-19)
(0.601821 -0.287768 0)
(0.617437 -0.120369 -1.82821e-19)
(0.588458 0.0621684 0)
(0.517568 0.242646 0)
(0.409474 0.407943 1.78138e-19)
(0.269185 0.54966 0)
(0.102803 0.663185 -1.7504e-19)
(-0.0817746 0.745674 1.52315e-22)
(-0.276752 0.79613 3.4343e-19)
(-0.475368 0.818431 -3.40326e-19)
(-0.674079 0.817506 0)
(-0.872345 0.799555 0)
(-1.06739 0.77355 -1.65658e-19)
(-1.24585 0.746844 0)
(-1.39516 0.718778 -1.622e-19)
(-1.52431 0.683257 1.60674e-19)
(-1.65045 0.642355 1.59138e-19)
(-1.7788 0.607955 0)
(-1.91401 0.579886 -1.56005e-19)
(-2.06387 0.547423 -1.54405e-19)
(-2.22759 0.505172 3.0628e-19)
(-2.38858 0.445427 -1.51141e-19)
(-2.52146 0.358504 -1.49479e-19)
(-2.63305 0.239305 0)
(-2.71591 0.097183 0)
(-2.72006 -0.0613831 1.44388e-19)
(-2.6461 -0.263405 0)
(-2.50374 -0.496519 0)
(-2.30234 -0.724486 -2.78241e-19)
(-2.04192 -0.911239 -2.74863e-19)
(-1.74226 -1.03912 0)
(-1.44274 -1.11624 0)
(-1.15728 -1.13594 0)
(-0.902422 -1.10193 0)
(-0.668799 -1.02784 -2.59237e-19)
(-0.459195 -0.9338 2.56458e-19)
(-0.271608 -0.827281 2.53262e-19)
(-0.0986836 -0.722943 5.00655e-19)
(0.0555358 -0.648649 0)
(0.180866 -0.600168 -4.04136e-23)
(0.286973 -0.589126 0)
(0.360644 -0.614078 -2.38112e-19)
(0.417798 -0.578603 -1.76774e-22)
(0.556492 -0.485659 -2.32428e-19)
(0.711509 -0.531407 2.2968e-19)
(0.781335 -0.57718 -1.90156e-22)
(0.803089 -0.439187 0)
(0.844708 -0.21063 2.21731e-19)