/*--------------------------------*- C++ -*----------------------------------*\
  =========                 |
  \\      /  F ield         | OpenFOAM: The Open Source CFD Toolbox
   \\    /   O peration     | Website:  https://openfoam.org
    \\  /    A nd           | Version:  6
     \\/     M anipulation  |
\*---------------------------------------------------------------------------*/
FoamFile
{
    version     2.0;
    format      ascii;
    class       volVectorField;
    location    "0.15";
    object      UMean;
}
// * * * * * * * * * * * * * * * * * * * * * * * * * * * * * * * * * * * * * //

dimensions      [0 1 -1 0 0 0 0];

internalField   nonuniform List<vector> 
12225
(
(9.83191 0.0188542 0)
(9.53527 0.0325491 0)
(9.24147 0.0354355 0)
(8.94367 0.036669 0)
(8.64884 0.0378778 0)
(8.36313 0.0389483 0)
(8.08901 0.0394484 0)
(7.82583 0.0398631 0)
(7.57279 0.03977 0)
(7.32795 0.0402907 0)
(7.09113 0.0399953 0)
(6.85958 0.0413672 0)
(6.63377 0.0409116 0)
(6.40855 0.0444439 0)
(6.18521 0.0440953 0)
(5.95378 0.0524229 0)
(5.71862 0.0530454 0)
(5.45332 0.0611065 0)
(10.0019 0.0413435 0)
(10.0662 0.069534 0)
(10.1103 0.0746034 0)
(10.1279 0.0766099 0)
(10.1266 0.0795421 0)
(10.1138 0.0824407 0)
(10.0932 0.0848374 0)
(10.066 0.0865867 0)
(10.0321 0.0884116 0)
(9.99243 0.0899935 0)
(9.9465 0.0923646 0)
(9.89581 0.094478 0)
(9.83854 0.0983689 0)
(9.77673 0.101976 0)
(9.70678 0.109227 0)
(9.63062 0.116247 0)
(9.54465 0.128092 0)
(9.44063 0.135925 0)
(9.99754 0.0351314 0)
(10.0297 0.062277 0)
(10.0617 0.0651977 0)
(10.0821 0.0652429 0)
(10.094 0.0675332 0)
(10.1027 0.0707815 0)
(10.1109 0.0737257 0)
(10.1184 0.0763705 0)
(10.125 0.0789769 0)
(10.1297 0.0819638 0)
(10.1329 0.0853947 0)
(10.1335 0.0896014 0)
(10.1333 0.0948399 0)
(10.1298 0.101469 0)
(10.1272 0.110556 0)
(10.1203 0.121225 0)
(10.1174 0.135388 0)
(10.1066 0.144128 0)
(10.0016 0.0280098 0)
(10.0255 0.0544046 0)
(10.0519 0.058882 0)
(10.0693 0.0595061 0)
(10.0789 0.0623385 0)
(10.0851 0.0663723 0)
(10.0908 0.0701751 0)
(10.0966 0.0734868 0)
(10.102 0.0767128 0)
(10.1064 0.080193 0)
(10.11 0.08422 0)
(10.1126 0.0889836 0)
(10.1147 0.0948357 0)
(10.1164 0.102181 0)
(10.1184 0.111425 0)
(10.1216 0.122791 0)
(10.1266 0.135207 0)
(10.1347 0.147155 0)
(9.98768 0.0220355 0)
(10.0066 0.0482885 0)
(10.0302 0.0559503 0)
(10.0477 0.0582273 0)
(10.0578 0.0615595 0)
(10.0642 0.0659402 0)
(10.0698 0.0701439 0)
(10.0753 0.0737988 0)
(10.0805 0.0772708 0)
(10.0849 0.0809127 0)
(10.0884 0.0851066 0)
(10.0911 0.0899743 0)
(10.0932 0.0959535 0)
(10.0953 0.103147 0)
(10.0974 0.112035 0)
(10.101 0.122273 0)
(10.1056 0.133382 0)
(10.1131 0.144478 0)
(9.99293 0.0144775 0)
(10.0068 0.0401209 0)
(10.0266 0.0505299 0)
(10.0429 0.0545231 0)
(10.0527 0.0582454 0)
(10.0587 0.0627147 0)
(10.0637 0.0671085 0)
(10.0686 0.0710324 0)
(10.0734 0.0747318 0)
(10.0776 0.0786196 0)
(10.0811 0.0830139 0)
(10.0841 0.0881526 0)
(10.0866 0.0942362 0)
(10.0892 0.101485 0)
(10.0919 0.109925 0)
(10.0957 0.119488 0)
(10.1004 0.129512 0)
(10.1067 0.139534 0)
(9.9928 0.0119963 0)
(10.0029 0.0350093 0)
(10.0197 0.0466562 0)
(10.0347 0.0516734 0)
(10.0447 0.0554122 0)
(10.051 0.0597035 0)
(10.056 0.0641761 0)
(10.0609 0.0683581 0)
(10.0657 0.0723249 0)
(10.0701 0.0764257 0)
(10.0738 0.0809862 0)
(10.0771 0.0862477 0)
(10.0801 0.0923555 0)
(10.0831 0.0994562 0)
(10.0865 0.107469 0)
(10.0907 0.116342 0)
(10.0956 0.12549 0)
(10.1017 0.134701 0)
(9.99472 0.0158219 0)
(10.0029 0.0351437 0)
(10.0173 0.0467876 0)
(10.031 0.0523837 0)
(10.0409 0.0560223 0)
(10.0475 0.0598868 0)
(10.0526 0.064078 0)
(10.0575 0.068204 0)
(10.0624 0.0722148 0)
(10.0669 0.076377 0)
(10.071 0.0809689 0)
(10.0747 0.0862165 0)
(10.0782 0.0921951 0)
(10.0819 0.0990055 0)
(10.0859 0.106505 0)
(10.0907 0.11468 0)
(10.0961 0.123031 0)
(10.1025 0.131567 0)
(10.0043 0.00870999 0)
(10.0114 0.0265348 0)
(10.0237 0.0387282 0)
(10.0361 0.0455533 0)
(10.0456 0.0500212 0)
(10.0522 0.0543246 0)
(10.0575 0.0589117 0)
(10.0624 0.0635151 0)
(10.0672 0.0680011 0)
(10.0719 0.0725463 0)
(10.0762 0.0773886 0)
(10.0803 0.0827644 0)
(10.0842 0.0887324 0)
(10.0884 0.0953943 0)
(10.0928 0.102577 0)
(10.0979 0.110319 0)
(10.1034 0.11815 0)
(10.1099 0.126264 0)
(10.0001 0.00667031 0)
(10.0061 0.0233823 0)
(10.017 0.0354051 0)
(10.0284 0.0428575 0)
(10.0379 0.047848 0)
(10.045 0.0522971 0)
(10.0507 0.0568745 0)
(10.056 0.0615003 0)
(10.0613 0.06605 0)
(10.0664 0.0706387 0)
(10.0713 0.0754602 0)
(10.076 0.0807269 0)
(10.0806 0.0864818 0)
(10.0854 0.0928009 0)
(10.0904 0.0995156 0)
(10.0959 0.106676 0)
(10.1017 0.113894 0)
(10.1084 0.121386 0)
(9.99924 0.00689332 0)
(10.0041 0.0223823 0)
(10.0132 0.0337927 0)
(10.023 0.0413173 0)
(10.0315 0.0465124 0)
(10.0382 0.0509607 0)
(10.0439 0.0553953 0)
(10.0493 0.0598947 0)
(10.0546 0.0643754 0)
(10.0599 0.0689138 0)
(10.0651 0.073646 0)
(10.0702 0.078762 0)
(10.0752 0.0842751 0)
(10.0805 0.0902674 0)
(10.086 0.0965422 0)
(10.0921 0.103199 0)
(10.0984 0.109821 0)
(10.1057 0.116734 0)
(9.99524 0.00219933 0)
(9.9991 0.0166776 0)
(10.0072 0.0276645 0)
(10.0163 0.0354834 0)
(10.0245 0.0411608 0)
(10.0313 0.0459016 0)
(10.0372 0.050456 0)
(10.0426 0.0550658 0)
(10.048 0.0597111 0)
(10.0533 0.064427 0)
(10.0585 0.06927 0)
(10.0637 0.0743886 0)
(10.0688 0.07977 0)
(10.0742 0.0855168 0)
(10.0798 0.0914264 0)
(10.086 0.097654 0)
(10.0924 0.103764 0)
(10.0996 0.110165 0)
(10.0035 0.00496287 0)
(10.006 0.0171648 0)
(10.0127 0.0269801 0)
(10.0206 0.0342961 0)
(10.0279 0.0398231 0)
(10.0342 0.0445034 0)
(10.0398 0.0489722 0)
(10.0451 0.0534668 0)
(10.0504 0.0579873 0)
(10.0558 0.0625603 0)
(10.0612 0.0672211 0)
(10.0667 0.0720961 0)
(10.0722 0.0771685 0)
(10.078 0.0825301 0)
(10.0839 0.0879933 0)
(10.0903 0.0936981 0)
(10.0969 0.0992479 0)
(10.1041 0.105021 0)
(9.99528 0.00434251 0)
(9.99774 0.0147637 0)
(10.004 0.0235404 0)
(10.0114 0.0304438 0)
(10.0185 0.0359196 0)
(10.025 0.0405922 0)
(10.0309 0.0449583 0)
(10.0365 0.0492878 0)
(10.0421 0.0536399 0)
(10.0478 0.0580576 0)
(10.0535 0.0625429 0)
(10.0593 0.0671904 0)
(10.0652 0.0719572 0)
(10.0714 0.0769442 0)
(10.0777 0.0819615 0)
(10.0844 0.087182 0)
(10.0911 0.0921955 0)
(10.0986 0.0974313 0)
(9.99283 0.00173105 0)
(9.99505 0.0111565 0)
(10.0004 0.0191126 0)
(10.0068 0.025633 0)
(10.0131 0.0310655 0)
(10.019 0.0358286 0)
(10.0247 0.0402508 0)
(10.0303 0.0445405 0)
(10.036 0.0487708 0)
(10.0419 0.0530109 0)
(10.0478 0.057267 0)
(10.0539 0.061626 0)
(10.0601 0.0660333 0)
(10.0664 0.0705888 0)
(10.0729 0.0751028 0)
(10.0797 0.0797619 0)
(10.0867 0.0841653 0)
(10.0941 0.0887604 0)
(10.0046 0.000478856 0)
(10.0061 0.00847084 0)
(10.0108 0.0153866 0)
(10.0165 0.0213479 0)
(10.0222 0.0264886 0)
(10.0278 0.0310434 0)
(10.0334 0.0352354 0)
(10.039 0.0392499 0)
(10.0447 0.0431859 0)
(10.0506 0.0471279 0)
(10.0565 0.0510662 0)
(10.0626 0.0550473 0)
(10.0687 0.0589891 0)
(10.075 0.0629769 0)
(10.0815 0.0668379 0)
(10.0882 0.0707725 0)
(10.0951 0.0744201 0)
(10.1022 0.0782353 0)
(9.99861 0.00124749 0)
(9.99947 0.00697409 0)
(10.0037 0.0121359 0)
(10.009 0.0168093 0)
(10.0145 0.0210215 0)
(10.0201 0.0248651 0)
(10.0258 0.0284624 0)
(10.0318 0.0319382 0)
(10.038 0.0353616 0)
(10.0443 0.0387944 0)
(10.0508 0.0422141 0)
(10.0574 0.0456502 0)
(10.0641 0.0490199 0)
(10.0709 0.0523977 0)
(10.0778 0.0556285 0)
(10.0849 0.0588975 0)
(10.092 0.0618821 0)
(10.0993 0.0649959 0)
(10.0031 0.00284947 0)
(10.0043 0.00603306 0)
(10.0083 0.00916833 0)
(10.0133 0.0122042 0)
(10.0185 0.015181 0)
(10.0239 0.0181151 0)
(10.0297 0.0209792 0)
(10.0357 0.0237776 0)
(10.042 0.0265248 0)
(10.0484 0.0292726 0)
(10.0549 0.0320092 0)
(10.0616 0.0347643 0)
(10.0683 0.0374565 0)
(10.0752 0.0401423 0)
(10.082 0.0426721 0)
(10.089 0.0452019 0)
(10.0959 0.0474468 0)
(10.103 0.0497679 0)
(9.99506 0.00105275 0)
(9.99668 0.00222165 0)
(10.0011 0.00364068 0)
(10.0063 0.00523175 0)
(10.0117 0.00695637 0)
(10.0172 0.00880841 0)
(10.0231 0.010768 0)
(10.0293 0.0128103 0)
(10.0357 0.0148886 0)
(10.0422 0.0169885 0)
(10.049 0.0190646 0)
(10.0558 0.0211292 0)
(10.0627 0.0231165 0)
(10.0697 0.0250753 0)
(10.0766 0.0268864 0)
(10.0836 0.028672 0)
(10.0906 0.0302022 0)
(10.0975 0.0317632 0)
(10.0006 -0.00280361 0)
(10.0022 -0.00325709 0)
(10.0069 -0.00343319 0)
(10.0124 -0.0031684 0)
(10.0182 -0.00243918 0)
(10.0241 -0.00137426 0)
(10.0303 -0.000152203 0)
(10.0367 0.00111547 0)
(10.0434 0.00238226 0)
(10.0501 0.00366429 0)
(10.0569 0.00495465 0)
(10.0638 0.00627498 0)
(10.0706 0.00757446 0)
(10.0775 0.00888256 0)
(10.0843 0.0100984 0)
(10.091 0.0113089 0)
(10.0978 0.0123296 0)
(10.1044 0.0133796 0)
(10.0056 -0.0013027 0)
(10.0071 -0.00387918 0)
(10.012 -0.00578217 0)
(10.0181 -0.00684932 0)
(10.0243 -0.00717327 0)
(10.0305 -0.00700492 0)
(10.0368 -0.00657311 0)
(10.0432 -0.00598842 0)
(10.0497 -0.00529021 0)
(10.0564 -0.00448421 0)
(10.0631 -0.00360957 0)
(10.0699 -0.00268878 0)
(10.0766 -0.00179144 0)
(10.0833 -0.000913936 0)
(10.0899 -0.000136709 0)
(10.0965 0.000610011 0)
(10.1031 0.00119667 0)
(10.1095 0.00179764 0)
(10.01 -0.00290555 0)
(10.0119 -0.0083686 0)
(10.0177 -0.0122028 0)
(10.0247 -0.014371 0)
(10.0316 -0.0152809 0)
(10.0383 -0.015524 0)
(10.0448 -0.0155089 0)
(10.0513 -0.0153532 0)
(10.0581 -0.0150471 0)
(10.065 -0.0145798 0)
(10.072 -0.0140056 0)
(10.0789 -0.0133748 0)
(10.0858 -0.0127641 0)
(10.0925 -0.0121769 0)
(10.0992 -0.0116758 0)
(10.1058 -0.0112009 0)
(10.1123 -0.0108579 0)
(10.1187 -0.0105044 0)
(9.99953 -0.00146256 0)
(10.003 -0.00931476 0)
(10.0106 -0.0147495 0)
(10.0192 -0.0178073 0)
(10.0273 -0.0192732 0)
(10.0345 -0.0200197 0)
(10.0411 -0.0205017 0)
(10.0477 -0.0208 0)
(10.0545 -0.0208956 0)
(10.0613 -0.0208027 0)
(10.0683 -0.020589 0)
(10.0752 -0.0203071 0)
(10.082 -0.0200172 0)
(10.0888 -0.0197266 0)
(10.0955 -0.0194877 0)
(10.1021 -0.0192647 0)
(10.1086 -0.0191375 0)
(10.1149 -0.0190076 0)
(9.99769 -0.00506346 0)
(10.0025 -0.0146077 0)
(10.0119 -0.0210394 0)
(10.0222 -0.0242253 0)
(10.0313 -0.025605 0)
(10.0388 -0.0264488 0)
(10.0455 -0.0271778 0)
(10.0523 -0.0277348 0)
(10.0594 -0.0280451 0)
(10.0667 -0.0281375 0)
(10.0739 -0.0281046 0)
(10.081 -0.0280096 0)
(10.0879 -0.0279085 0)
(10.0947 -0.0278043 0)
(10.1014 -0.0277416 0)
(10.1079 -0.0276874 0)
(10.1144 -0.0277126 0)
(10.1206 -0.0277283 0)
(9.9981 -0.00899633 0)
(10.0041 -0.0202401 0)
(10.0156 -0.0267557 0)
(10.0274 -0.0293274 0)
(10.0371 -0.030434 0)
(10.0447 -0.0314403 0)
(10.0516 -0.0324537 0)
(10.0585 -0.0332253 0)
(10.0657 -0.0336684 0)
(10.0729 -0.033869 0)
(10.0799 -0.0339601 0)
(10.0869 -0.0340197 0)
(10.0937 -0.0340901 0)
(10.1004 -0.0341635 0)
(10.1071 -0.0342603 0)
(10.1136 -0.0343532 0)
(10.1201 -0.034491 0)
(10.1264 -0.0346124 0)
(9.99353 -0.0130822 0)
(10.0013 -0.0273777 0)
(10.0152 -0.0331073 0)
(10.0285 -0.0344404 0)
(10.0384 -0.0352183 0)
(10.046 -0.0364452 0)
(10.053 -0.0376914 0)
(10.0602 -0.0385515 0)
(10.0678 -0.0390145 0)
(10.0753 -0.0392561 0)
(10.0828 -0.0394292 0)
(10.0899 -0.0395963 0)
(10.0969 -0.0397678 0)
(10.1037 -0.0399287 0)
(10.1103 -0.0400858 0)
(10.1168 -0.0402344 0)
(10.1231 -0.040405 0)
(10.1292 -0.0405796 0)
(9.99334 -0.01337 0)
(10.006 -0.0323744 0)
(10.0238 -0.037369 0)
(10.0384 -0.0377283 0)
(10.0482 -0.0384084 0)
(10.0556 -0.0398983 0)
(10.0627 -0.0414188 0)
(10.0702 -0.0425489 0)
(10.0779 -0.0433267 0)
(10.0856 -0.0439238 0)
(10.0931 -0.0444555 0)
(10.1003 -0.044953 0)
(10.1073 -0.0454217 0)
(10.1142 -0.0458505 0)
(10.1209 -0.046266 0)
(10.1274 -0.046662 0)
(10.1339 -0.047098 0)
(10.14 -0.0475163 0)
(10.0059 -0.0154034 0)
(10.0257 -0.0374405 0)
(10.0479 -0.0412118 0)
(10.0641 -0.0406001 0)
(10.0747 -0.0407915 0)
(10.0832 -0.0418059 0)
(10.0917 -0.0427626 0)
(10.1006 -0.0433423 0)
(10.1097 -0.0436445 0)
(10.1185 -0.0438605 0)
(10.127 -0.0440729 0)
(10.1351 -0.0443248 0)
(10.1431 -0.04458 0)
(10.1507 -0.0448691 0)
(10.1582 -0.0451385 0)
(10.1652 -0.0454666 0)
(10.1722 -0.0457803 0)
(10.1787 -0.0462403 0)
(10.008 -0.0305534 0)
(10.0523 -0.0528972 0)
(10.0895 -0.0574454 0)
(10.1127 -0.0582911 0)
(10.1257 -0.0594549 0)
(10.1336 -0.0608202 0)
(10.1391 -0.0618173 0)
(10.1428 -0.0623586 0)
(10.1446 -0.0626118 0)
(10.1446 -0.0627652 0)
(10.1429 -0.0628801 0)
(10.1398 -0.0629971 0)
(10.1353 -0.063069 0)
(10.1301 -0.0631392 0)
(10.1237 -0.0631478 0)
(10.117 -0.0631883 0)
(10.1091 -0.0631902 0)
(10.1014 -0.0632998 0)
(9.90966 -0.011253 0)
(9.7465 -0.0221902 0)
(9.58535 -0.0250636 0)
(9.41993 -0.0262293 0)
(9.25469 -0.0273007 0)
(9.0946 -0.0282851 0)
(8.94182 -0.029021 0)
(8.79649 -0.0294967 0)
(8.65791 -0.0297845 0)
(8.52556 -0.0299565 0)
(8.39892 -0.0300565 0)
(8.278 -0.0301032 0)
(8.16224 -0.0301104 0)
(8.05198 -0.0300752 0)
(7.94617 -0.0300271 0)
(7.84582 -0.0299329 0)
(7.74877 -0.029883 0)
(7.65776 -0.0297194 0)
(-0.0866154 0.0190001 4.78284e-22)
(-0.168332 -0.0587099 -4.71065e-22)
(-0.187224 -0.127483 0)
(-0.160407 -0.190962 0)
(-0.0515879 -0.242145 0)
(0.108412 -0.273811 4.50212e-22)
(0.293318 -0.290769 0)
(0.492151 -0.291301 0)
(0.691818 -0.277714 0)
(0.883108 -0.253735 0)
(1.05787 -0.224557 -3.12104e-22)
(1.21021 -0.196211 0)
(1.34053 -0.168744 0)
(1.44624 -0.136339 0)
(1.52321 -0.100857 0)
(1.57146 -0.0682368 -9.06043e-23)
(1.59353 -0.0396612 0)
(1.59135 -0.0139436 0)
(1.56598 0.0113493 0)
(1.51773 0.0380111 0)
(1.44576 0.0686791 0)
(1.34697 0.0977955 0)
(1.22504 0.117413 0)
(1.09091 0.122419 -8.57409e-23)
(0.941467 0.120893 9.64104e-23)
(0.788406 0.0913701 -1.04476e-22)
(0.644234 0.0487722 -1.09336e-22)
(0.497758 0.011407 0)
(0.373829 -0.0389745 0)
(0.268623 -0.0237931 1.05709e-22)
(0.143615 0.0411121 1.01207e-22)
(-0.00333705 0.0667778 0)
(-0.157932 0.0559854 0)
(-0.296396 0.0402814 5.67939e-23)
(-0.42181 0.0269248 0)
(-0.533414 0.0180002 0)
(-0.634356 0.010602 1.8154e-23)
(-0.722033 -0.000373837 0)
(-0.80998 -0.000944367 6.74738e-23)
(-0.916581 0.0111403 1.88321e-22)
(-1.02898 0.0203835 0)
(-1.15727 0.0326914 0)
(-1.27621 -0.000833059 0)
(-1.34931 -0.0368949 0)
(-1.41423 -0.026288 0)
(-1.44064 -0.038503 5.13138e-22)
(-1.47892 -0.0628776 5.48793e-22)
(-1.47455 -0.0822135 5.74664e-22)
(-1.47975 -0.0466544 0)
(-1.54632 -0.0180317 -5.94446e-22)
(-1.58335 -0.0144292 0)
(-1.6295 -0.00588161 6.29341e-22)
(-1.68416 -0.0185267 6.4861e-22)
(-1.71673 0.00328441 0)
(-1.79761 0.0161538 0)
(-1.88239 0.0280509 0)
(-1.9962 0.0501227 7.36059e-22)
(-2.10641 0.0538331 0)
(-2.19535 0.0536761 0)
(-2.29066 0.0466117 0)
(-2.37118 0.034549 0)
(-2.44172 0.0271841 0)
(-2.51391 0.0256924 0)
(-2.59386 0.0201581 0)
(-2.65143 0.00642096 0)
(-2.69161 -0.00017307 -1.22316e-21)
(-2.71993 -0.00481744 0)
(-2.74266 -0.0118924 0)
(-2.7537 -0.0236225 1.28672e-21)
(-2.77192 -0.0232807 1.28242e-21)
(-2.79435 -0.0298458 0)
(-2.827 0.000614969 -1.23235e-21)
(-2.91778 0.0398896 1.18989e-21)
(-3.00711 0.0530159 0)
(-3.10774 0.0556652 -1.1103e-21)
(-3.21621 0.0464406 0)
(-3.32304 0.0474965 0)
(-3.46502 0.0582469 1.0262e-21)
(-3.60914 0.0637034 0)
(-3.76968 0.0568551 -1.01713e-21)
(-3.88762 0.0450808 0)
(-4.00366 0.0455791 1.02945e-21)
(-4.10125 0.0421356 1.03447e-21)
(-4.17583 0.0381168 1.03748e-21)
(-4.2241 0.0288375 2.07464e-21)
(-4.24478 0.0179948 -2.06364e-21)
(-4.24012 0.00210018 0)
(-4.21467 -0.0104669 0)
(-4.16997 -0.0241975 0)
(-4.11302 -0.0270837 -1.84412e-21)
(-4.07919 -0.0101721 -1.73519e-21)
(-4.05536 -0.0180413 1.61013e-21)
(-3.98115 -0.0183559 0)
(-3.96788 -0.00742546 -1.31855e-21)
(-3.93666 -0.0210251 -1.16923e-21)
(-3.86501 -0.0358594 -1.01842e-21)
(-3.7686 -0.0483407 0)
(-3.64681 -0.056975 0)
(-3.51549 -0.063223 0)
(-3.37898 -0.0664962 -2.52005e-22)
(-3.24196 -0.0613773 0)
(-3.10857 -0.0609526 0)
(-2.96141 -0.0674445 -5.5853e-22)
(-2.82875 -0.0639867 0)
(-2.6942 -0.0725098 0)
(-2.54782 -0.0558127 -1.5085e-21)
(-2.49711 -0.0434105 0)
(-2.43616 -0.0504535 0)
(-2.36541 -0.0440671 2.19804e-21)
(-2.30376 -0.0364879 2.32957e-21)
(-2.23401 -0.0350409 0)
(-2.15324 -0.0388517 -2.47653e-21)
(-2.05319 -0.0463795 0)
(-1.93589 -0.0524729 2.52565e-21)
(-1.80861 -0.0549055 0)
(-1.67725 -0.0544586 2.55278e-21)
(-1.54688 -0.052101 2.57993e-21)
(-1.42125 -0.0488149 0)
(-1.30266 -0.0446663 0)
(-1.19043 -0.0442296 0)
(-1.09681 -0.0355859 0)
(-0.981155 -0.0478835 0)
(-0.854745 -0.0251794 0)
(-0.86876 0.00926961 0)
(-0.864462 0.000391637 3.06517e-21)
(-0.814276 -0.00889001 -3.03016e-21)
(-0.745911 -0.0180111 0)
(-0.656864 -0.0241804 0)
(-0.552837 -0.026591 0)
(-0.449903 -0.0245328 0)
(-0.34577 -0.0252394 -5.83827e-21)
(-0.271672 -0.019898 0)
(-0.152998 -0.0303225 6.13825e-21)
(-0.0628779 -0.00834583 -6.32765e-21)
(-0.0990569 0.0109492 0)
(-0.0960509 0.0046587 0)
(-0.0711093 -0.000142803 0)
(-0.0192083 -0.00933989 6.54232e-21)
(0.0685572 -0.0191914 6.58595e-21)
(0.183977 -0.0273668 0)
(0.321285 -0.0335096 6.83138e-21)
(0.4754 -0.0382466 7.03627e-21)
(0.642854 -0.0416649 -7.28512e-21)
(0.820062 -0.0440277 0)
(1.00449 -0.0454906 0)
(1.19355 -0.0463155 -8.20401e-21)
(1.38559 -0.0467508 0)
(1.57996 -0.0469058 0)
(1.77572 -0.0467282 0)
(1.97177 -0.0463129 0)
(2.16556 -0.0456985 9.89386e-21)
(2.35413 -0.0445483 1.01507e-20)
(2.53409 -0.0422982 0)
(2.70153 -0.0386455 1.04574e-20)
(2.85295 -0.0341804 0)
(2.98782 -0.0295489 0)
(3.1083 -0.024078 1.03605e-20)
(3.21594 -0.0172725 0)
(3.31005 -0.0104159 1.00342e-20)
(3.38881 -0.00547411 0)
(3.4511 -0.00277646 0)
(3.49784 -0.000735683 9.4155e-21)
(3.52922 0.00153983 0)
(3.54541 0.00407521 9.01222e-21)
(3.54686 0.00686074 0)
(3.53244 0.00879518 0)
(3.5049 0.00788298 0)
(3.472 0.00586563 -8.30222e-21)
(3.43988 0.00595728 0)
(3.40979 0.00772275 7.99479e-21)
(3.382 0.0101382 0)
(3.34474 0.0125763 0)
(3.30428 0.0149558 0)
(3.24512 0.0160983 0)
(3.19012 0.0194759 0)
(3.09757 0.0210474 0)
(3.03022 0.0274244 0)
(2.87514 0.0273511 -1.44999e-20)
(2.80711 0.0434713 0)
(2.49826 0.043777 0)
(-0.0301022 0.28137 -1.39321e-21)
(-0.0304449 0.157476 1.37056e-21)
(0.0214044 -0.000356389 0)
(0.165539 -0.18616 -8.45562e-22)
(0.356571 -0.378289 0)
(0.553729 -0.52698 -4.52192e-22)
(0.748256 -0.61519 7.26864e-22)
(0.932974 -0.646396 6.63092e-22)
(1.10372 -0.631905 0)
(1.25693 -0.584438 4.92935e-22)
(1.38978 -0.515997 3.14319e-22)
(1.49954 -0.438029 0)
(1.5857 -0.358744 0)
(1.6479 -0.282013 0)
(1.68999 -0.206319 0)
(1.71812 -0.130599 9.24019e-23)
(1.73078 -0.0580117 0)
(1.72373 0.0118508 5.17427e-23)
(1.69407 0.0795749 0)
(1.6429 0.143645 0)
(1.57436 0.206953 -3.07442e-23)
(1.48501 0.267825 0)
(1.37731 0.317112 -2.3016e-23)
(1.25795 0.358998 8.82215e-23)
(1.13544 0.381763 -9.90835e-23)
(1.00041 0.384433 1.07275e-22)
(0.838597 0.399594 1.12164e-22)
(0.643251 0.417365 0)
(0.431502 0.412888 0)
(0.215624 0.407142 -1.08369e-22)
(-0.00381313 0.365773 -1.95367e-23)
(-0.186918 0.306378 0)
(-0.320468 0.280696 0)
(-0.440881 0.258118 -5.90428e-23)
(-0.542734 0.224381 0)
(-0.644664 0.193931 0)
(-0.740471 0.174545 -1.54504e-23)
(-0.813061 0.152862 0)
(-0.899927 0.156262 2.2568e-22)
(-0.999365 0.189103 -1.828e-22)
(-1.0991 0.225475 0)
(-1.19484 0.243107 0)
(-1.30622 0.224071 -1.00113e-21)
(-1.4169 0.174656 -1.09824e-21)
(-1.52177 0.0920676 -1.18974e-21)
(-1.64917 0.0376972 7.64611e-22)
(-1.77325 0.0631003 -5.43949e-22)
(-1.82566 0.0433691 -1.98249e-21)
(-1.86948 0.017429 1.45507e-21)
(-1.91937 0.0154821 5.89558e-22)
(-1.94276 0.0174563 0)
(-1.99882 0.0595746 -6.25232e-22)
(-2.07137 0.0789693 9.42472e-22)
(-2.13146 0.0909552 0)
(-2.24099 0.132138 0)
(-2.36669 0.163953 0)
(-2.48539 0.178808 -7.33017e-22)
(-2.58403 0.172522 0)
(-2.67013 0.151044 1.95592e-21)
(-2.77102 0.136281 0)
(-2.86862 0.133809 2.16913e-21)
(-2.94135 0.124374 0)
(-2.99782 0.115885 -2.39194e-21)
(-3.04408 0.101652 0)
(-3.07687 0.0757847 2.58943e-21)
(-3.09683 0.0441454 -1.44369e-21)
(-3.10429 0.0160268 0)
(-3.10707 -0.00666789 -2.75225e-21)
(-3.10922 -0.0137207 -1.28581e-21)
(-3.14011 0.00958073 -1.28166e-21)
(-3.21173 0.0596015 0)
(-3.28684 0.102506 -1.42713e-21)
(-3.39191 0.125268 -1.18923e-21)
(-3.5169 0.139563 0)
(-3.68472 0.174346 1.10839e-21)
(-3.84797 0.201704 -2.39231e-21)
(-3.98781 0.202333 0)
(-4.16189 0.212898 -1.02348e-21)
(-4.30026 0.203382 0)
(-4.40418 0.174788 3.30899e-21)
(-4.47414 0.139137 0)
(-4.52826 0.110092 -3.32637e-21)
(-4.54701 0.0738896 -1.03164e-21)
(-4.54234 0.0337768 1.25507e-21)
(-4.51139 -0.00752082 2.48098e-21)
(-4.46566 -0.0423948 -2.44347e-21)
(-4.40566 -0.0769358 0)
(-4.34206 -0.10162 0)
(-4.29726 -0.0846432 0)
(-4.26329 -0.0667244 5.8483e-21)
(-4.20954 -0.0748131 1.73328e-21)
(-4.1844 -0.0667879 -1.6088e-21)
(-4.16572 -0.0601605 0)
(-4.14153 -0.0809257 -1.72684e-21)
(-4.07318 -0.118418 1.16833e-21)
(-3.98114 -0.153992 1.01731e-21)
(-3.8603 -0.189461 0)
(-3.71853 -0.215617 0)
(-3.56678 -0.231701 0)
(-3.40967 -0.234345 2.51334e-22)
(-3.25411 -0.217464 0)
(-3.10115 -0.20817 2.32151e-22)
(-2.95653 -0.209084 1.40157e-21)
(-2.82324 -0.196695 -1.47453e-21)
(-2.75326 -0.154622 0)
(-2.7 -0.124661 -1.19839e-21)
(-2.68146 -0.112016 0)
(-2.62455 -0.111907 -3.6589e-21)
(-2.55052 -0.111427 1.80766e-21)
(-2.45534 -0.123448 1.94919e-21)
(-2.33622 -0.144182 0)
(-2.19446 -0.1661 7.10254e-21)
(-2.04002 -0.183433 -4.71982e-21)
(-1.87779 -0.193081 -2.52582e-21)
(-1.71543 -0.194837 0)
(-1.55578 -0.189945 -2.5522e-21)
(-1.4031 -0.180309 -7.53339e-21)
(-1.25904 -0.168308 0)
(-1.12539 -0.154116 -5.20082e-21)
(-1.00507 -0.137356 -5.37061e-21)
(-0.888791 -0.129519 -5.5514e-21)
(-0.85722 -0.0932953 0)
(-0.818051 -0.0546887 0)
(-0.760268 -0.0556447 0)
(-0.664923 -0.0766589 2.85149e-21)
(-0.552807 -0.093294 3.0289e-21)
(-0.427396 -0.115994 0)
(-0.29402 -0.129682 5.70527e-21)
(-0.163295 -0.12812 5.64288e-21)
(-0.039287 -0.118654 0)
(0.0809141 -0.109588 5.83462e-21)
(0.185466 -0.107478 1.16478e-20)
(0.231999 -0.0740774 -6.13266e-21)
(0.236624 -0.0360778 -5.92321e-21)
(0.23587 -0.030663 0)
(0.30554 -0.0496159 0)
(0.391122 -0.0724364 0)
(0.513023 -0.0998474 -6.53946e-21)
(0.654892 -0.123936 6.19851e-21)
(0.816829 -0.143726 1.30194e-20)
(0.990626 -0.159016 -6.8269e-21)
(1.17667 -0.170901 6.7718e-21)
(1.37053 -0.179571 7.27919e-21)
(1.57178 -0.185484 0)
(1.77757 -0.188925 0)
(1.98736 -0.190397 -8.00511e-21)
(2.1997 -0.190369 0)
(2.41375 -0.189134 0)
(2.62842 -0.186657 1.83137e-20)
(2.84255 -0.182905 0)
(3.05431 -0.177738 9.73247e-21)
(3.26073 -0.170894 -1.01429e-20)
(3.45845 -0.161989 0)
(3.64453 -0.150486 1.03266e-20)
(3.81594 -0.136507 0)
(3.97035 -0.121302 0)
(4.10597 -0.106649 -1.03518e-20)
(4.22093 -0.0939465 2.0315e-20)
(4.31733 -0.0822877 -1.00257e-20)
(4.40552 -0.0692364 0)
(4.48709 -0.0553131 0)
(4.55811 -0.0410722 9.33236e-21)
(4.61706 -0.0276932 0)
(4.66168 -0.0165788 8.92903e-21)
(4.69291 -0.00636686 0)
(4.71006 0.00386969 0)
(4.71296 0.0124443 0)
(4.7019 0.0175075 8.29529e-21)
(4.67915 0.019117 0)
(4.6429 0.0179091 -7.98807e-21)
(4.59607 0.0163446 0)
(4.54178 0.0171755 0)
(4.50391 0.0226243 1.51796e-20)
(4.4612 0.0277516 -1.49762e-20)
(4.43183 0.0373115 0)
(4.37078 0.0438844 0)
(4.3316 0.0588334 0)
(4.22417 0.0679407 4.33259e-20)
(4.18516 0.102103 0)
(3.99028 0.120679 -2.85602e-20)
(0.0219349 0.262385 3.29447e-23)
(0.0916394 0.0723258 -1.76479e-21)
(0.244191 -0.251674 0)
(0.459627 -0.593083 1.61089e-21)
(0.66922 -0.848052 0)
(0.849704 -0.990427 0)
(0.998169 -1.03519 -2.19512e-22)
(1.1195 -1.00739 -6.65888e-22)
(1.21852 -0.930693 -3.13143e-22)
(1.30013 -0.823051 -4.94904e-22)
(1.36743 -0.699339 0)
(1.41964 -0.570129 0)
(1.45649 -0.442729 -5.41997e-23)
(1.47711 -0.322394 -2.42553e-22)
(1.48303 -0.210816 3.4941e-22)
(1.47789 -0.106948 0)
(1.46555 -0.00973097 4.76465e-22)
(1.43746 0.0845095 -5.25896e-23)
(1.39358 0.176913 0)
(1.3368 0.270664 4.64796e-22)
(1.26908 0.3592 3.05606e-23)
(1.19046 0.442396 -3.63571e-22)
(1.10056 0.517454 2.41234e-23)
(1.00545 0.559818 0)
(0.889809 0.59768 1.87006e-22)
(0.745422 0.660766 1.42439e-22)
(0.590252 0.715113 0)
(0.425408 0.751422 9.11382e-23)
(0.249529 0.75822 0)
(0.0665719 0.751585 1.10561e-22)
(-0.11319 0.725508 -8.79115e-23)
(-0.283136 0.660127 0)
(-0.442897 0.581255 0)
(-0.595006 0.505071 0)
(-0.714894 0.43679 0)
(-0.812987 0.388783 0)
(-0.907415 0.364928 0)
(-0.978704 0.335043 8.29182e-22)
(-1.05486 0.330776 -1.22439e-21)
(-1.13176 0.356241 0)
(-1.2033 0.387785 0)
(-1.26744 0.401259 0)
(-1.35221 0.40043 -3.39926e-22)
(-1.45462 0.388373 1.09605e-21)
(-1.59186 0.37115 2.70913e-21)
(-1.71519 0.328796 -2.88408e-21)
(-1.83033 0.275554 -1.69577e-21)
(-1.91806 0.206359 1.41163e-21)
(-2.01611 0.151403 3.73354e-22)
(-2.10128 0.14264 1.87758e-21)
(-2.21302 0.1827 0)
(-2.31891 0.21728 1.94762e-21)
(-2.42326 0.241195 3.85025e-22)
(-2.55206 0.29502 0)
(-2.68376 0.367577 0)
(-2.78957 0.377663 -2.10107e-21)
(-2.87952 0.35962 0)
(-2.97183 0.333576 0)
(-3.05037 0.302416 2.73521e-21)
(-3.1109 0.266487 4.88295e-21)
(-3.15426 0.227297 -2.1683e-21)
(-3.18213 0.184898 0)
(-3.19469 0.14489 2.39333e-21)
(-3.19645 0.109362 0)
(-3.19732 0.0829882 3.21049e-21)
(-3.20362 0.0598862 2.66933e-21)
(-3.22165 0.0364467 -5.98808e-21)
(-3.24633 0.0221885 -3.26789e-21)
(-3.29927 0.0540557 0)
(-3.37964 0.115152 6.00543e-21)
(-3.47156 0.180043 0)
(-3.57885 0.237948 8.52326e-21)
(-3.72424 0.29659 5.7525e-21)
(-3.86782 0.335015 5.63779e-21)
(-4.022 0.367165 -5.52488e-21)
(-4.14962 0.380324 7.81531e-21)
(-4.25894 0.375408 0)
(-4.37727 0.379583 0)
(-4.4388 0.34117 -5.25858e-21)
(-4.46014 0.269128 -7.5372e-21)
(-4.46654 0.203607 0)
(-4.45885 0.14391 2.3016e-21)
(-4.42367 0.0838316 0)
(-4.3726 0.0190016 -7.432e-21)
(-4.3096 -0.0398989 5.30944e-22)
(-4.24369 -0.0865421 -5.08226e-22)
(-4.18195 -0.117151 4.92497e-21)
(-4.1311 -0.131071 0)
(-4.084 -0.115627 -4.6642e-21)
(-4.02976 -0.112557 4.76704e-22)
(-4.00026 -0.0941025 0)
(-3.99648 -0.0770221 0)
(-3.98092 -0.090052 0)
(-3.9306 -0.136149 3.04862e-21)
(-3.83847 -0.19613 0)
(-3.72407 -0.257813 0)
(-3.58632 -0.311178 0)
(-3.44098 -0.347761 0)
(-3.29122 -0.36854 0)
(-3.14256 -0.36892 1.36759e-21)
(-2.99749 -0.34363 0)
(-2.84934 -0.326294 -2.2956e-22)
(-2.73054 -0.3072 -8.39865e-22)
(-2.64993 -0.248901 1.47162e-21)
(-2.61143 -0.181043 0)
(-2.58159 -0.143269 2.70621e-21)
(-2.53611 -0.145244 0)
(-2.45267 -0.158218 3.6613e-21)
(-2.35044 -0.178891 -4.00898e-21)
(-2.21881 -0.213455 -1.18683e-20)
(-2.06973 -0.250961 0)
(-1.90454 -0.283661 -1.30281e-20)
(-1.73532 -0.305652 -3.9454e-21)
(-1.56535 -0.31514 0)
(-1.40065 -0.312757 -9.00531e-21)
(-1.24233 -0.300609 -9.15959e-21)
(-1.09453 -0.281181 1.43005e-20)
(-0.959262 -0.257437 0)
(-0.8341 -0.233081 5.19374e-21)
(-0.724324 -0.20843 5.364e-21)
(-0.663995 -0.167837 1.61752e-20)
(-0.622302 -0.123595 0)
(-0.532021 -0.110865 0)
(-0.415201 -0.126716 0)
(-0.287803 -0.149739 5.34659e-21)
(-0.163024 -0.17106 0)
(-0.0327603 -0.202607 0)
(0.0889346 -0.216416 -5.70162e-21)
(0.203613 -0.206035 -5.63972e-21)
(0.298962 -0.18218 0)
(0.388683 -0.159975 0)
(0.439135 -0.131261 -1.16407e-20)
(0.439259 -0.081058 0)
(0.451675 -0.0530469 1.22384e-20)
(0.51806 -0.0689707 1.17089e-20)
(0.623206 -0.103036 0)
(0.736882 -0.142138 0)
(0.876679 -0.183234 -1.20133e-20)
(1.0241 -0.218271 -5.55417e-22)
(1.18635 -0.247181 -4.9422e-22)
(1.35748 -0.269989 0)
(1.5409 -0.288037 -2.71897e-20)
(1.73256 -0.301422 0)
(1.93246 -0.310702 0)
(2.13735 -0.316174 0)
(2.34627 -0.318566 1.61948e-20)
(2.55732 -0.318465 0)
(2.77004 -0.316378 -3.46218e-20)
(2.98346 -0.312386 -1.83056e-20)
(3.19676 -0.306285 0)
(3.408 -0.297452 -1.96103e-20)
(3.61467 -0.285332 0)
(3.81331 -0.269494 0)
(4.00075 -0.249449 -6.19172e-20)
(4.17482 -0.225243 4.13445e-20)
(4.33396 -0.198173 0)
(4.47644 -0.170432 4.08719e-20)
(4.59989 -0.144274 -2.03051e-20)
(4.70154 -0.121647 0)
(4.78253 -0.103391 0)
(4.84617 -0.0892978 0)
(4.89654 -0.0763891 -5.59559e-20)
(4.94651 -0.0598021 0)
(4.99686 -0.0410466 -1.7927e-20)
(5.03978 -0.0223491 0)
(5.07356 -0.00404398 0)
(5.09736 0.0125075 0)
(5.10977 0.0258426 0)
(5.11075 0.0362055 0)
(5.0978 0.0438245 0)
(5.0722 0.049883 -3.11191e-20)
(5.02956 0.0530839 0)
(4.97948 0.0553679 -1.51742e-20)
(4.91733 0.0560282 4.47692e-20)
(4.86292 0.0627117 0)
(4.80328 0.0724902 0)
(4.76039 0.0907615 -2.88656e-20)
(4.67996 0.107226 -2.88292e-20)
(4.63343 0.14447 2.84572e-20)
(4.5199 0.182796 2.85484e-20)
(0.0427872 0.0589511 2.56113e-21)
(0.209793 -0.354067 2.47727e-21)
(0.442922 -0.815634 1.46894e-21)
(0.648632 -1.1136 5.04102e-22)
(0.801364 -1.24706 0)
(0.906159 -1.26077 -7.96462e-22)
(0.976776 -1.1997 4.5486e-23)
(1.0284 -1.09548 0)
(1.06782 -0.966585 3.12807e-22)
(1.10079 -0.820346 0)
(1.13324 -0.671369 2.86513e-22)
(1.16162 -0.531264 0)
(1.18397 -0.395607 5.62147e-23)
(1.19455 -0.263634 2.46735e-22)
(1.18861 -0.138144 -3.53605e-22)
(1.16663 -0.0227473 0)
(1.13421 0.0802005 -4.80164e-22)
(1.08445 0.196143 0)
(1.02441 0.317583 0)
(0.95836 0.42939 -4.67029e-22)
(0.884485 0.529202 0)
(0.801512 0.614094 -3.81466e-22)
(0.712541 0.680861 0)
(0.610148 0.752575 0)
(0.490815 0.838796 4.03926e-22)
(0.362094 0.91511 -1.39805e-22)
(0.225243 0.970697 -5.20383e-22)
(0.086064 1.00313 -8.75162e-23)
(-0.0570239 1.01156 0)
(-0.20569 1.00322 -6.18903e-22)
(-0.350742 0.977734 0)
(-0.492264 0.917219 -6.00859e-22)
(-0.633524 0.838408 0)
(-0.774057 0.758139 0)
(-0.902382 0.674168 8.53148e-22)
(-1.01746 0.597238 0)
(-1.11671 0.529565 -1.0578e-21)
(-1.20013 0.475218 3.43732e-22)
(-1.28395 0.468683 2.22535e-21)
(-1.36193 0.49144 -2.81348e-21)
(-1.44458 0.531698 0)
(-1.51545 0.544261 0)
(-1.59981 0.549157 -2.10296e-21)
(-1.69343 0.548904 0)
(-1.79049 0.528362 -1.5202e-21)
(-1.87253 0.474954 1.61332e-21)
(-1.95446 0.405321 1.6968e-21)
(-2.03416 0.337292 0)
(-2.13908 0.326484 -1.83043e-21)
(-2.25859 0.368807 -1.87994e-21)
(-2.40043 0.420052 4.69531e-21)
(-2.54688 0.45151 -1.94779e-21)
(-2.68212 0.457777 -1.97357e-21)
(-2.81407 0.469432 0)
(-2.92651 0.49307 0)
(-3.00901 0.485502 2.09923e-21)
(-3.0817 0.462705 0)
(-3.14006 0.417384 0)
(-3.1842 0.360739 -4.68633e-21)
(-3.21571 0.301989 -4.88134e-21)
(-3.23489 0.246389 0)
(-3.24592 0.19417 0)
(-3.26373 0.153865 0)
(-3.28648 0.129889 0)
(-3.30684 0.108983 -5.80849e-21)
(-3.33771 0.0908887 6.54476e-21)
(-3.38247 0.0762965 5.99402e-21)
(-3.44412 0.0916692 1.26157e-20)
(-3.53165 0.150462 0)
(-3.64049 0.236294 5.41436e-22)
(-3.7558 0.327744 0)
(-3.86538 0.404706 -5.86308e-21)
(-3.9711 0.459923 6.11326e-22)
(-4.06107 0.486613 -5.64052e-21)
(-4.15076 0.500228 5.52868e-21)
(-4.2061 0.488126 6.51776e-22)
(-4.25472 0.465055 0)