/*--------------------------------*- C++ -*----------------------------------*\
  =========                 |
  \\      /  F ield         | OpenFOAM: The Open Source CFD Toolbox
   \\    /   O peration     | Website:  https://openfoam.org
    \\  /    A nd           | Version:  6
     \\/     M anipulation  |
\*---------------------------------------------------------------------------*/
FoamFile
{
    version     2.0;
    format      ascii;
    class       volScalarField;
    location    "0.25";
    object      nut;
}
// * * * * * * * * * * * * * * * * * * * * * * * * * * * * * * * * * * * * * //

dimensions      [0 2 -1 0 0 0 0];

internalField   nonuniform List<scalar> 
12225
(
5.09839e-10
0
0
0
0
0
0
0
0
0
0
0
0
0
0
0
1.87474e-09
4.23663e-08
1.45589e-10
0
0
0
0
0
0
0
0
0
0
0
0
0
0
0
6.2999e-09
4.47263e-08
4.79467e-11
0
0
0
0
0
0
0
0
0
0
0
0
0
0
0
7.62696e-09
2.34495e-08
2.22529e-08
0
0
0
0
0
2.71415e-10
2.35423e-10
0
0
0
0
0
0
0
0
3.35882e-09
0
3.39529e-07
0
0
0
0
0
0
3.1446e-08
1.23476e-07
8.73432e-08
4.24355e-08
1.16687e-07
1.75508e-07
1.91736e-07
1.22885e-07
3.23572e-08
0
0
3.75411e-07
0
0
0
0
1.06875e-07
6.26198e-08
5.36535e-08
4.01314e-08
0
1.12923e-06
2.01854e-06
1.52171e-06
9.82246e-07
5.82482e-07
2.55871e-07
6.71215e-08
2.75326e-09
4.05616e-07
0
0
0
1.08493e-07
1.22447e-06
1.01914e-06
0
0
0
9.06387e-07
1.99704e-06
1.65538e-06
9.10625e-07
2.98152e-07
6.0005e-08
1.5885e-08
2.6047e-08
5.72553e-07
3.70982e-07
0
0
2.88546e-07
4.70246e-07
8.11407e-07
0
0
0
1.01741e-06
2.09788e-06
1.62684e-06
7.8235e-07
1.63169e-07
0
1.35349e-08
5.39367e-08
2.45222e-07
1.46323e-06
7.24651e-07
5.88047e-07
3.54146e-07
1.23111e-07
0
0
0
5.13742e-07
3.63872e-06
3.26703e-06
1.72046e-06
3.4794e-07
0
0
0
2.87331e-08
0
3.80111e-07
5.31758e-07
6.36195e-07
2.67691e-07
0
0
0
1.56051e-06
3.85454e-06
3.26987e-06
1.38752e-06
1.25532e-08
0
0
0
0
0
5.63492e-08
1.43647e-07
0
0
0
0
5.10274e-07
7.60875e-07
1.09728e-06
6.36614e-07
0
0
0
0
0
0
0
0
3.36712e-07
0
0
0
0
0
0
0
0
0
0
0
0
0
0
0
0
0
6.72648e-07
3.63245e-07
6.06474e-08
0
0
0
0
0
0
4.83909e-08
0
0
0
0
0
0
0
0
7.49211e-07
7.30694e-07
5.25206e-07
0
9.41761e-09
6.70007e-08
0
0
9.0169e-08
1.74969e-07
2.1996e-07
1.1521e-07
0
0
0
0
0
0
0
0
1.46579e-06
6.72042e-08
0
2.44973e-07
2.14492e-07
4.57155e-08
0
1.35098e-08
8.03542e-08
1.23469e-07
1.40046e-07
6.72515e-08
0
0
0
0
0
0
0
0
0
1.00336e-06
6.56051e-07
1.20632e-07
0
0
3.84796e-08
2.09469e-07
3.48674e-07
2.00434e-07
0
0
0
0
0
0
0
0
0
0
0
0
0
1.65348e-07
4.68293e-07
3.63104e-07
0
0
0
0
0
0
2.54934e-07
0
0
0
3.56608e-07
4.67244e-07
3.48681e-07
3.42979e-07
0
0
0
3.98216e-07
6.10264e-07
4.04765e-07
1.16395e-07
0
0
0
3.0255e-07
0
0
1.20962e-07
1.35837e-06
1.59086e-06
1.78799e-06
1.60283e-06
9.79266e-07
1.37199e-07
0
0
2.78606e-07
5.40775e-07
2.96394e-07
3.82787e-08
5.58563e-08
1.98371e-07
3.11314e-07
0
0
1.06343e-07
4.30223e-07
1.11495e-06
1.36789e-06
1.35884e-06
9.75408e-07
3.7474e-07
1.22301e-07
1.86298e-07
2.9068e-07
3.19176e-07
1.63113e-07
0
0
3.33483e-07
0
0
1.35458e-07
2.77206e-07
2.48854e-08
0
3.47937e-07
6.66993e-07
6.62293e-07
4.6602e-07
2.76753e-07
2.22438e-07
2.78756e-07
3.22022e-07
2.55599e-07
4.45797e-08
0
0
0
0
0
6.93758e-07
4.478e-07
1.22976e-07
0
0
0
4.35472e-08
9.58295e-08
1.72388e-07
2.58813e-07
3.01033e-07
2.54652e-07
9.03589e-08
0
6.42184e-08
5.48661e-07
0
0
3.39761e-07
3.3905e-07
0
0
0
0
3.31345e-07
4.10897e-07
4.00078e-07
4.83752e-07
3.28264e-07
6.60977e-08
0
0
0
8.26857e-08
0
0
0
0
0
0
3.24945e-08
5.76969e-07
1.17912e-06
7.13158e-07
1.51793e-07
2.4692e-07
2.8158e-07
1.28894e-07
0
0
0
0
0
0
0
0
0
0
0
0
0
0
0
0
6.07115e-08
5.41268e-08
0
0
0
0
0
0
0
0
0
0
0
0
0
0
0
0
0
5.06827e-08
0
0
0
0
0
0
0
0
0
0
0
0
0
0
0
0
0
4.45039e-09
8.48847e-09
9.77657e-09
9.40992e-09
1.06697e-09
0
0
0
1.33027e-10
9.58111e-11
0
0
0
0
0
0
0
0
0
2.06448e-10
4.98081e-10
8.02422e-10
1.31652e-09
4.71446e-10
3.35252e-11
8.51623e-11
3.32455e-10
2.99835e-10
0
0
0
0
0
0
0
0
0
0
0
0
4.78567e-09
2.13307e-09
4.32674e-10
4.05896e-10
1.05058e-09
8.67445e-10
0
0
0
0
0
0
0
0
0
0
0
0
9.64636e-07
2.29849e-05
5.4608e-05
5.7034e-05
9.34135e-06
0
0
0
0
0
8.06323e-07
2.93407e-06
3.0103e-06
2.02888e-06
8.71417e-07
0
0
0
0
0
0
0
0
0
0
0
0
0
0
0
3.00973e-07
2.07417e-06
8.52695e-06
1.3035e-05
7.74127e-06
1.27384e-05
1.73913e-05
0
0
0
9.7414e-07
5.89211e-06
5.49016e-06
2.4756e-06
7.10637e-07
1.21668e-06
1.672e-06
2.08274e-06
3.36071e-06
5.37209e-06
8.01412e-06
1.63536e-05
4.3527e-05
5.28489e-05
5.54421e-05
6.92964e-05
2.88523e-05
5.41788e-06
1.06282e-06
1.75397e-07
1.79027e-07
2.9298e-07
3.85697e-07
4.30158e-07
4.41303e-07
4.33466e-07
4.17202e-07
4.06759e-07
3.99781e-07
3.9891e-07
4.04004e-07
4.13459e-07
4.20385e-07
4.17324e-07
4.10389e-07
4.04992e-07
3.98517e-07
3.82702e-07
3.48592e-07
2.90676e-07
2.09196e-07
1.17879e-07
1.79162e-08
0
0
0
0
0
0
0
0
0
0
0
0
0
0
0
0
0
0
0
0
0
0
0
0
0
0
0
0
0
0
0
0
0
0
0
0
0
0
0
0
0
0
0
0
0
0
0
0
6.58623e-09
2.74336e-08
3.24083e-08
8.5755e-08
1.87791e-07
2.63752e-07
2.73382e-07
0
0
0
0
0
0
0
0
0
1.82645e-07
1.61531e-06
2.70381e-06
2.36371e-06
5.86946e-07
0
1.73452e-07
4.72442e-06
1.58995e-05
7.33182e-05
0.000112483
2.13381e-05
3.99205e-06
1.79918e-06
1.08979e-06
6.83151e-07
4.09136e-07
2.0366e-07
4.22954e-08
0
0
0
0
0
0
0
0
0
0
0
0
0
0
0
0
0
0
0
0
0
0
0
0
1.0585e-06
3.0113e-06
3.63624e-06
3.12522e-06
2.03639e-06
8.91237e-07
0
0
0
0
0
0
0
0
1.59517e-07
2.55412e-07
2.19809e-07
1.87285e-07
4.39365e-07
8.97486e-07
9.2545e-07
1.60544e-06
4.30581e-06
4.69068e-06
1.3813e-06
7.0202e-07
2.36284e-06
0
0
0
0
2.71104e-06
5.53185e-06
5.38954e-06
3.49062e-06
1.9067e-06
1.1597e-06
1.88992e-06
4.65745e-06
6.86798e-06
1.03875e-05
1.53244e-05
1.96049e-05
2.35349e-05
1.58547e-05
1.36709e-05
8.72359e-06
3.94698e-06
1.54528e-06
6.56027e-07
5.24505e-07
5.20478e-07
5.33082e-07
5.16489e-07
4.87952e-07
4.52287e-07
4.2131e-07
3.96593e-07
3.80115e-07
3.72249e-07
3.70444e-07
3.73744e-07
3.77444e-07
3.77791e-07
3.74489e-07
3.66503e-07
3.55075e-07
3.40379e-07
3.23794e-07
2.88601e-07
2.24663e-07
1.32667e-07
6.0307e-09
0
0
0
0
0
0
0
0
0
0
0
0
0
0
0
0
0
0
0
0
0
0
0
0
0
0
0
0
0
0
0
0
0
0
0
0
0
0
0
0
0
0
0
0
0
0
0
0
6.40987e-09
2.73785e-08
2.85158e-08
7.10497e-08
1.47827e-07
1.981e-07
1.52513e-07
0
0
0
0
0
0
0
0
0
0
0
1.61215e-06
2.72407e-06
1.49608e-06
0
1.64089e-06
7.82831e-06
3.30403e-05
0.000113262
8.3098e-05
2.22578e-05
6.50619e-06
3.04111e-06
1.69271e-06
9.87523e-07
5.64811e-07
2.78826e-07
6.37598e-08
0
0
0
0
0
0
0
0
0
0
0
0
0
0
0
4.04705e-06
4.93555e-06
6.13474e-06
7.71523e-06
8.03657e-06
7.5282e-06
6.98998e-06
6.24433e-06
5.14271e-06
3.89424e-06
2.41039e-06
7.42673e-07
0
0
0
0
0
0
0
0
0
1.42981e-06
4.2324e-06
5.70773e-06
5.87757e-06
5.0695e-06
4.02672e-06
3.49978e-06
3.35473e-06
2.74858e-06
2.52731e-06
4.55388e-06
4.25005e-06
1.94178e-06
3.1597e-06
5.4318e-06
4.25779e-06
1.29126e-06
0
0
0
0
0
0
0
0
0
0
0
0
2.26126e-06
3.17603e-06
3.55032e-06
9.83813e-07
1.04171e-06
1.54719e-06
6.36021e-07
3.36503e-07
3.61091e-07
7.03517e-07
9.13027e-07
1.09902e-06
1.14816e-06
1.14177e-06
1.07679e-06
9.96576e-07
9.1484e-07
8.49849e-07
8.04937e-07
7.78713e-07
7.8027e-07
8.01148e-07
8.31221e-07
8.65731e-07
9.01634e-07
9.37238e-07
9.61089e-07
9.36997e-07
8.20025e-07
6.05106e-07
2.81261e-07
0
0
0
0
0
0
0
0
0
0
0
0
0
0
0
0
0
0
0
0
0
0
0
0
0
0
0
0
0
0
0
0
0
0
0
0
0
0
0
0
0
0
0
0
0
0
0
1.27111e-08
1.71679e-08
0
0
3.30412e-08
3.18705e-08
0
3.64155e-09
0
0
0
0
0
0
7.07432e-07
2.31855e-07
0
0
0
0
0
1.93403e-06
1.53591e-06
0
3.4905e-06
2.11541e-05
6.03199e-05
7.57533e-05
3.3678e-05
1.31041e-05
8.90274e-06
7.57742e-06
4.94104e-06
2.86048e-06
1.57647e-06
7.82676e-07
2.16185e-07
0
0
0
0
0
0
0
0
0
0
0
0
0
0
6.49866e-06
3.74217e-06
6.4953e-06
9.1063e-06
9.80211e-06
9.91607e-06
9.19085e-06
7.70438e-06
5.27438e-06
1.1597e-06
0
0
0
0
0
0
0
0
0
0
0
0
0
0
4.23253e-06
1.44542e-05
1.7234e-05
1.67558e-05
1.56083e-05
1.40756e-05
1.20429e-05
9.24497e-06
7.97295e-06
6.63576e-06
4.9556e-06
5.57353e-06
6.68178e-06
6.12721e-06
5.63673e-06
4.35133e-06
0
0
0
0
0
0
0
0
0
0
0
0
0
0
0
0
0
0
0
0
0
0
0
1.64108e-07
6.35786e-07
1.05786e-06
1.42163e-06
1.57784e-06
1.48294e-06
1.15823e-06
7.67687e-07
4.40937e-07
2.0132e-07
3.85135e-08
0
4.61724e-08
3.68989e-07
1.13328e-06
2.53385e-06
3.99044e-06
2.64749e-06
3.12477e-07
0
0
0
0
0
0
0
0
0
0
0
0
0
0
0
0
0
0
0
0
0
0
0
0
0
0
0
0
0
0
0
0
0
0
0
0
0
0
0
0
0
0
0
0
0
0
0
0
0
0
0
0
0
0
0
0
0
0
0
0
3.93635e-07
1.0604e-06
7.87526e-08
0
0
0
0
0
2.18372e-06
1.81549e-06
0
3.17646e-06
1.78347e-05
4.59739e-05
4.16352e-05
1.35548e-05
6.38419e-06
8.05298e-06
8.35074e-06
8.0242e-06
6.77073e-06
3.20381e-06
0
0
1.21007e-05
3.15683e-06
0
0
0
0
0
0
0
0
0
0
0
0
5.61482e-06
5.45838e-06
6.0334e-06
6.05723e-06
5.2735e-06
5.05112e-06
4.2558e-06
0
0
0
0
0
0
0
0
0
0
0
0
0
0
0
0
0
0
2.03022e-06
3.26151e-06
3.44857e-06
3.31766e-06
3.40571e-06
3.98722e-06
5.16363e-06
6.55045e-06
6.83913e-06
5.42906e-06
3.84999e-06
2.81281e-06
1.53091e-06
4.72405e-07
0
0
0
0
0
2.89377e-06
3.41678e-06
1.88081e-06
1.88119e-06
1.42249e-06
0
0
0
0
0
0
0
0
0
0
0
0
0
0
0
1.33155e-07
3.95399e-07
5.18895e-07
4.26305e-07
2.01743e-07
0
0
0
0
0
0
4.20204e-08
6.35327e-07
1.52483e-06
2.16865e-06
1.31412e-06
0
0
0
0
0
0
0
0
0
0
0
0
0
0
0
0
0
0
0
0
0
0
0
0
0
0
0
0
0
0
0
0
0
0
0
0
0
0
0
0
0
0
0
0
0
0
0
0
0
0
0
0
0
0
0
0
0
0
1.09973e-06
8.29025e-07
0
2.58661e-07
2.59008e-06
1.98825e-06
2.91623e-07
0
0
0
0
2.03681e-06
4.44615e-06
2.84239e-06
0
1.07263e-06
1.70757e-05
4.38467e-05
2.71984e-05
6.58646e-06
6.06155e-06
9.90424e-06
8.6432e-06
6.65231e-06
2.3533e-06
0
0
0
1.23178e-05
7.94901e-06
1.66565e-06
0
0
0
0
0
0
0
0
0
0
0
6.88991e-06
8.64778e-06
5.38239e-06
3.62481e-06
3.18448e-06
3.31143e-07
0
0
0
0
0
0
0
0
0
0
0
0
0
0
0
0
0
0
0
0
0
0
0
3.89768e-08
4.70998e-07
1.08086e-06
1.83193e-06
2.38547e-06
2.25963e-06
1.54548e-06
7.32306e-07
0
0
0
0
0
0
2.26515e-06
4.73569e-06
7.04662e-06
8.26981e-06
9.9717e-06
1.04739e-05
6.40372e-06
2.05297e-06
0
0
0
0
0
0
0
0
0
0
0
0
3.12887e-07
6.98894e-07
9.24404e-07
8.89943e-07
5.88164e-07
1.76746e-07
0
0
0
0
0
2.57294e-08
4.67962e-07
9.56367e-07
1.16019e-06
5.61726e-07
0
0
0
0
0
0
0
0
0
0
0
0
0
0
0
0
0
0
0
0
0
0
0
0
0
0
0
0
0
0
0
0
0
0
0
0
0
0
0
0
0
0
0
0
0
0
0
0
0
0
0
0
0
0
0
0
0
0
0
0
0
0
0
7.16577e-06
5.64644e-06
4.41786e-06
2.44088e-08
0
0
2.22351e-06
4.7328e-06
5.44132e-06
2.62928e-06
0
1.93083e-06
2.01506e-05
4.54389e-05
2.12195e-05
4.19153e-06
7.88293e-06
1.01618e-05
6.67666e-06
2.43164e-06
0
0
0
0
9.1572e-06
9.12022e-06
4.11438e-06
0
0
0
0
0
0
0
0
0
0
0
5.47348e-06
6.39107e-06
5.09852e-06
5.03515e-06
2.57181e-06
2.98545e-06
5.06293e-06
6.11772e-06
6.74234e-06
7.87469e-06
9.82434e-06
6.3238e-06
4.7241e-06
5.0546e-06
6.28982e-06
8.10046e-06
1.05581e-05
1.23856e-05
1.24088e-05
1.03766e-05
6.62233e-06
2.03297e-06
0
0
0
0
0
0
0
0
0
0
0
7.07268e-07
1.15345e-06
1.09628e-06
4.73829e-07
0
0
0
0
0
0
1.39144e-06
2.7154e-06
4.56452e-06
6.69234e-06
9.54291e-06
1.1967e-05
1.13033e-05
6.7552e-06
2.91474e-06
1.75771e-06
1.50748e-06
2.04925e-06
1.94283e-06
9.50234e-07
2.11947e-07
0
0
0
2.6692e-07
7.50904e-07
1.3098e-06
1.79268e-06
2.01169e-06
1.81043e-06
1.17185e-06
3.66002e-07
0
0
0
0
0
2.38793e-07
4.69491e-07
4.96807e-07
1.17518e-07
0
0
0
0
0
0
0
0
0
0
0
0
0
0
0
0
0
0
0
0
0
0
0
0
0
0
0
0
0
0
0
0
0
0
0
0
0
0
0
0
0
0
0
0
0
0
0
0
0
0
0
0
0
0
0
0
0
0
0
0
0
0
0
0
1.92289e-06
2.5178e-06
2.30647e-06
1.94305e-06
0
0
9.40708e-07
4.48842e-06
4.61396e-06
1.21633e-06
0
2.41801e-06
2.36181e-05
4.57996e-05
1.90922e-05
3.20908e-06
8.34326e-06
7.89777e-06
2.64583e-06
0
0
0
0
0
9.1895e-06
1.16833e-05
6.99289e-06
2.11668e-06
0
0
0
0
0
0
0
0
0
0
6.69359e-07
1.16749e-06
1.88471e-06
5.32724e-06
6.60417e-06
8.53984e-06
7.90415e-06
5.67605e-06
9.94499e-06
2.23898e-05
1.48199e-05
8.66277e-06
5.50905e-06
4.58212e-06
4.97279e-06
6.34292e-06
8.58321e-06
1.07649e-05
1.25774e-05
1.34858e-05
1.3084e-05
1.06793e-05
6.47552e-06
2.04743e-06
0
0
0
0
0
0
0
0
0
0
5.63612e-08
8.30099e-07
5.05454e-07
0
0
0
0
0
0
0
0
0
0
3.85817e-07
4.1539e-07
0
0
0
2.09116e-07
3.23532e-07
4.60981e-07
4.34841e-07
1.72849e-07
0
0
0
2.26121e-07
5.17486e-07
7.98696e-07
1.07377e-06
1.33548e-06
1.5869e-06
1.74327e-06
1.51481e-06
6.76405e-07
4.71835e-08
8.80099e-08
2.25891e-07
3.1305e-07
3.81462e-07
4.43282e-07
4.6422e-07
3.46374e-07
0
0
0
0
0
0
0
0
0
2.05612e-07
4.1785e-07
3.2435e-07
0
0
0
0
0
0
0
0
0
0
0
0
0
0
0
0
0
0
0
0
0
0
0
0
0
0
0
0
0
0
0
0
0
0
0
0
0
0
0
0
0
0
0
0
0
0
1.40055e-06
6.99828e-06
8.60776e-07
0
0
0
5.93457e-07
0
0
2.28719e-06
2.80483e-06
3.1105e-09
0
0
7.18142e-07
2.018e-06
0
0
2.82454e-06
2.59588e-05
4.28501e-05
1.72529e-05
2.62129e-06
7.79991e-06
4.49022e-06
0
0
0
0
0
0
1.14621e-05
1.61177e-05
1.07997e-05
4.8229e-06
2.48313e-07
0
0
0
0
0
0
0
0
0
6.3416e-09
5.73466e-08
3.14738e-07
5.83309e-06
6.94282e-06
5.62689e-06
3.25174e-07
6.69693e-06
2.54378e-05
2.13917e-05
1.49181e-05
9.21161e-06
5.62275e-06
4.04209e-06
3.67721e-06
4.17723e-06
5.2938e-06
6.5429e-06
7.70838e-06
8.55517e-06
8.97906e-06
8.67488e-06
7.00442e-06
4.35773e-06
1.83849e-06
0
0
0
0
0
0
0
0
0
0
5.56188e-07
5.61731e-07
0
0
0
0
0
0
0
0
0
0
0
0
0
0
0
0
0
0
0
0
0
0
0
0
1.17426e-07
4.19076e-07
7.94359e-07
1.29323e-06
1.97578e-06
2.36965e-06
5.93929e-07
0
2.24333e-07
5.10733e-07
6.95065e-07
8.11929e-07
9.17861e-07
1.03956e-06
1.17072e-06
1.25357e-06
1.17609e-06
8.3816e-07
2.26588e-07
0
0
0
3.56538e-08
9.08417e-07
1.63933e-06
1.92216e-06
1.93318e-06
1.78641e-06
9.80899e-07
0
0
0
0
0
0
0
0
0
0
0
0
0
0
0
0
0
0
0
0
0
0
0
0
0
0
0
0
0
0
0
0
0
0
0
0
0
0
0
0
0
0
0
0
0
0
6.8067e-06
4.26056e-06
1.59624e-07
0
0
3.07082e-06
5.35832e-06
0
2.831e-06
3.50147e-06
6.26425e-07
0
0
0
0
0
0
3.36471e-06
2.70435e-05
3.90538e-05
1.48708e-05
1.66488e-06
6.55592e-06
1.10806e-06
0
0
0
0
0
0
1.18764e-05
1.97148e-05
1.48563e-05
7.72429e-06
2.15844e-06
0
0
0
0
0
0
0
0
0
0
2.96371e-08
2.13335e-07
6.7748e-06
2.18294e-06
0
1.24102e-05
2.07887e-05
1.91946e-05
1.67711e-05
1.33336e-05
9.16994e-06
5.90821e-06
4.05953e-06
3.24814e-06
3.22928e-06
3.70236e-06
4.4775e-06
5.06941e-06
5.30385e-06
5.43852e-06
5.20827e-06
4.30342e-06
2.75326e-06
9.26521e-07
0
0
0
0
0
0
0
0
0
0
9.40693e-07
8.39236e-07
0
0
0
0
0
0
0
0
0
0
0
0
0
0
0
0
0
0
0
0
0
0
0
4.94729e-07
1.36996e-06
2.61153e-06
4.35847e-06
5.58704e-06
1.37861e-06
0
0
0
0
0
0
2.01727e-08
3.13881e-07
6.28411e-07
9.70575e-07
1.30326e-06
1.54706e-06
1.59947e-06
1.38463e-06
8.92647e-07
3.69563e-07
2.93982e-07
8.2739e-07
1.49028e-06
1.48359e-06
1.01111e-06
1.96081e-07
0
0
0
0
0
0
0
0
0
0
0
0
0
0
0
0
0
0
0
0
0
0
0
0
0
0
0
0
0
0
0
0
0
0
0
0
0
0
0
0
0
0
0
0
0
0
0
0
0
0
5.05241e-07
0
1.84046e-06
5.84027e-06
8.42916e-06
2.83956e-06
1.56511e-06
3.0538e-06
3.11112e-07
0
0
0
0
0
0
4.01043e-06
2.75438e-05
3.52214e-05
1.1026e-05
0
4.70583e-06
0
0
0
0
0
0
0
8.40724e-06
1.94049e-05
1.7556e-05
1.05752e-05
4.08432e-06
0
0
0
0
0
0
0
0
0
0
0
4.33112e-08
3.19557e-06
7.21956e-06
1.53888e-05
1.29776e-05
1.08998e-05
9.94999e-06
9.59293e-06
8.68935e-06
6.84489e-06
4.92217e-06
3.39441e-06
2.27153e-06
1.60333e-06
1.49254e-06
1.72676e-06
1.93665e-06
2.10427e-06
2.2777e-06
2.33635e-06
2.16036e-06
1.61492e-06
6.30255e-07
0
0
0
0
0
0
0
0
4.95953e-07
1.49667e-06
1.76305e-06
1.28381e-06
1.96669e-07
4.62353e-08
3.94826e-06
7.17751e-06
2.97477e-06
2.13086e-07
0
0
0
0
0
0
0
0
0
0
0
0
0
0
0
2.77505e-07
1.21085e-06
2.60104e-06
4.53908e-06
6.17156e-06
2.92306e-06
0
0
0
0
0
0
0
0
0
0
0
0
0
0
0
0
0
0
0
0
5.18909e-07
7.65311e-07
6.08894e-07
8.18462e-08
0
0
0
3.21429e-07
6.13592e-07
4.42115e-07
1.90666e-07
0
0
0
0
0
0
0
0
0
0
0
0
0
0
0
0
0
0
0
0
0
0
0
0
0
0
0
0
0
0
0
0
0
0
0
0
0
0
0
0
0
0
0
0
5.60163e-07
3.74918e-06
6.21021e-06
6.5588e-06
5.38113e-06
0
2.66773e-06
3.204e-07
0
0
0
0
0
0
4.74958e-06
2.76691e-05
3.16671e-05
6.2813e-06
0
2.40776e-06
0
0
0
0
0
0
0
3.74626e-06
1.60571e-05
1.80668e-05
1.28219e-05
6.00624e-06
9.31692e-07
0
0
0
0
0
0
0
0
0
0
0
7.06954e-06
9.92302e-06
5.73363e-06
3.79534e-06
3.04216e-06
2.98688e-06
3.26952e-06
3.29281e-06
2.89089e-06
2.45305e-06
1.93639e-06
1.1779e-06
3.41038e-07
0
0
0
0
0
0
0
7.63541e-08
0
0
0
0
0
0
0
1.93013e-07
1.10837e-06
1.73862e-06
1.9863e-06
2.09504e-06
2.66287e-06
3.64236e-06
5.11468e-06
1.17885e-05
1.15431e-05
5.89491e-06
1.5282e-06
0
0
0
0
0
0
0
0
0
0
0
0
0
1.01705e-07
5.35932e-07
1.19831e-06
2.16364e-06
3.06372e-06
2.5733e-06
0
0
0
0
0
0
0
0
0
0
0
0
0
0
0
0
0
0
0
0
0
2.12294e-07
1.07836e-06
1.50239e-06
1.44674e-06
9.49313e-07
1.79464e-08
0
0
2.08524e-06
1.9756e-06
1.33248e-06
6.22027e-07
1.03192e-07
0
0
0
0
0
0
0
0
0
0
0
0
0
0
0
0
0
0
0
0
0
0
0
0
0
0
0
0
0
0
0
0
0
0
0
0
0
0
0
0
0
0
0
0
0
1.10152e-06
2.60722e-06
2.72745e-06
0
1.98481e-06
0
0
0
0
0
0
0
5.37161e-06
2.67307e-05
2.84044e-05
1.58831e-06
0
0
0
0
0
0
0
0
0
2.48592e-09
1.25142e-05
1.73001e-05
1.41676e-05
7.74338e-06
2.19523e-06
0
0
0
0
0
0
0
0
0
0
0
1.84995e-06
2.62025e-06
2.13077e-06
1.89278e-06
1.37931e-06
9.74963e-07
6.29641e-07
4.48555e-08
0
0
0
0
0
0
0
0
0
0
0
0
0
0
0
0
0
0
3.65779e-07
1.13291e-06
1.92233e-06
2.66786e-06
3.25442e-06
3.68024e-06
4.31614e-06
5.46754e-06
6.53984e-06
7.76509e-06
1.09706e-05
9.099e-06
5.7925e-06
2.13929e-06
0
0
0
0
0
0
0
0
0
0
1.47924e-07
1.54291e-07
2.21346e-07
4.52384e-07
7.87918e-07
1.05748e-06
1.06015e-06
3.49785e-07
0
0
0
0
0
0
0
0
0
0
0
0
0
0
0
0
0
0
0
0
0
2.07956e-07
1.18399e-06
1.87977e-06
2.27298e-06
2.20601e-06
1.63462e-06
6.84474e-07
2.52449e-07
4.47563e-06
6.49852e-06
4.17145e-06
2.66139e-06
1.27084e-06
2.59597e-07
0
0
0
0
0
0
0
0
0
0
0
0
0
0
0
0
0
0
0
0
0
0
0
0
0
0
0
0
0
0
0
0
0
0
0
0
0
0
0
0
0
0
0
0
0
0
0
0
0
0
0
0
0
0
0
0
0
5.58403e-06
2.46144e-05
2.49224e-05
0
0
0
0
0
0
0
0
0
0
0
9.90684e-06
1.61857e-05
1.46488e-05
9.01326e-06
3.34225e-06
0
0
0
0
0
0
0
0
0
0
0
2.10032e-06
3.70927e-06
3.78598e-06
3.40322e-06
2.69036e-06
2.03925e-06
1.23897e-06
5.56832e-08
0
0
0
0
0
0
0
0
0
0
0
0
0
0
0
0
9.95654e-08
1.01366e-06
1.85653e-06
2.61706e-06
3.35386e-06
4.10644e-06
4.81218e-06
5.37211e-06
5.90162e-06
6.70867e-06
7.84118e-06
9.48932e-06
9.49572e-06
6.12459e-06
4.72004e-06
2.35385e-06
0
0
0
0
0
0
0
0
0
0
1.39247e-07
2.38408e-07
2.0812e-07
2.49354e-07
3.16272e-07
1.56292e-07
0
0
0
0
0
0
0
0
3.25256e-07
1.56186e-06
2.04881e-06
2.00784e-06
1.72467e-06
1.36795e-06
9.77188e-07
5.38552e-07
1.62139e-07
9.01301e-08
2.51586e-07
1.80601e-07
0
0
0
3.82935e-07
1.30164e-06
2.08845e-06
2.59798e-06
2.8006e-06
2.28295e-06
1.3891e-06
6.97206e-07
3.23887e-06
8.02598e-06
5.77593e-06
3.82873e-06
1.98624e-06
5.92594e-07
0
0
0
0
0
0
0
0
0
0
0
0
0
0
0
0
0
0
0
0
0
0
0
0
0
0
0
0
0
0
0
0
0
0
0
0
0
0
0
0
0
0
0
6.11617e-07
5.53871e-07
0
0
0
0
0
0
0
0
0
0
0
0
5.31255e-06
2.09698e-05
2.08074e-05
0
0
0
0
0
0
0
0
0
0
0
7.932e-06
1.50848e-05
1.44093e-05
9.53229e-06
4.13589e-06
3.92527e-07
0
0
0
0
0
0
0
0
0
0
0
3.76771e-06
4.61907e-06
4.34997e-06
3.88231e-06
3.35212e-06
2.24437e-06
2.6309e-07
0
0
0
0
0
0
0
0
0
0
0
0
0
0
0
1.00722e-06
2.6676e-06
3.98409e-06
4.87628e-06
5.43569e-06
5.85715e-06
6.27625e-06
6.69796e-06
6.9567e-06
6.8109e-06
6.63625e-06
7.71303e-06
9.59767e-06
6.70161e-06
4.19609e-06
4.16799e-06
2.69122e-06
3.65069e-07
0
9.57561e-08
0
0
0
0
0
0
0
1.43385e-07
3.48911e-07
3.12258e-07
1.43401e-07
0
0
0
0
0
0
0
0
0
0
1.11091e-06
2.34327e-06
2.67865e-06
2.52691e-06
2.27761e-06
2.09069e-06
1.93585e-06
1.69838e-06
1.32138e-06
9.46542e-07
5.93942e-07
0
0
0
0
4.21127e-07
1.61004e-06
2.51641e-06
3.10314e-06
3.23865e-06
1.89429e-06
0
0
0
0
3.20122e-06
3.45094e-06
2.08475e-06
7.8515e-07
5.03187e-08
0
0
0
0
0
0
0
0
0
0
0
0
0
0
0
0
0
0
0
0
0
0
0
0
0
0
0
0
0
0
0
0
0
0
0
0
0
0
0
0
0
0
8.85479e-07
1.01354e-06
2.86552e-07
0
0
0
0
0
0
0
0
0
0
0
4.69103e-06
1.6136e-05
1.62318e-05
0
0
0
0
0
0
0
0
0
0
0
5.65585e-06
1.3753e-05
1.34234e-05
9.14258e-06
4.334e-06
8.8444e-07
0
0
0
0
0
0
0
0
0
0
0
1.15667e-06
2.65793e-06
2.75308e-06
2.6487e-06
2.41342e-06
1.58756e-06
0
0
0
0
0
0
0
0
0
0
0
0
0
0
0
9.89129e-07
2.52918e-06
4.17049e-06
5.72558e-06
7.0907e-06
8.17075e-06
8.97157e-06
9.41815e-06
9.56681e-06
9.34961e-06
8.41288e-06
6.46261e-06
4.92325e-06
5.46363e-06
4.84069e-06
4.66956e-06
5.04856e-06
3.59328e-06
1.35116e-06
4.20577e-07
1.86362e-06
0
0
0
0
0
0
0
3.13893e-07
5.90691e-07
6.50449e-07
4.35744e-07
2.15849e-08
0
0
0
0
0
0
0
0
0
7.74052e-07
1.58958e-06
1.43087e-06
9.27354e-07
4.65986e-07
1.19065e-07
0
0
0
0
0
0
0
0
3.95501e-07
1.79577e-06
2.54156e-06
2.81824e-06
2.57596e-06
1.34424e-06
0
0
0
0
0
0
8.26013e-07
9.76372e-07
3.68495e-07
7.96287e-08
6.81851e-08
6.46626e-08
1.39442e-08
0
0
0
0
0
0
0
0
0
0
0
0
0
0
0
0
0
0
0
0
0
0
0
0
1.5485e-07
1.31302e-07
6.02219e-08
0
0
0
0
4.48882e-08
6.18067e-08
6.38012e-08
3.29835e-08
0
0
0
0
6.94858e-07
9.06304e-07
8.64186e-07
0
0
0
0
0
0
0
0
0
0
0
3.94429e-06
1.10966e-05
1.17151e-05
0
0
0
0
0
0
0
0
0
0
0
2.45196e-06
1.17288e-05
1.15704e-05
7.7766e-06
3.79241e-06
1.00024e-06
0
0
0
0
0
0
0
0
0
0
0
0
1.08476e-06
1.83354e-06
2.43356e-06
2.68299e-06
2.26384e-06
1.33789e-06
5.76778e-08
0
0
0
0
0
1.20047e-06
3.05696e-06
4.52691e-06
3.44761e-06
0
0
0
0
0
0
0
0
0
0
4.4114e-08
3.43116e-06
5.91123e-06
7.09349e-06
7.11952e-06
5.97909e-06
3.46452e-06
1.54676e-06
4.18965e-06
6.32412e-06
6.48496e-06
4.37195e-06
1.60111e-06
0
1.75988e-06
1.80912e-06
0
0
0
0
0
0
1.65823e-07
4.95958e-07
7.10146e-07
6.87962e-07
4.00845e-07
0
0
0
0
0
0
0
0
0
1.1811e-06
1.30875e-06
9.27179e-07
5.2857e-07
2.17706e-07
0
0
0
0
0
0
0
0
0
1.43245e-06
2.16648e-06
2.13281e-06
1.63667e-06
5.71822e-07
0
0
0
0
0
0
0
0
0
0
0
1.16385e-07
3.52094e-07
2.86172e-07
1.88251e-07
1.79181e-07
1.9229e-07
1.47856e-07
8.0429e-08
1.53235e-08
0
0
0
0
0
0
0
0
0
0
0
0
0
0
0
0
0
3.44532e-07
4.77396e-07
4.16501e-07
3.18011e-07
2.02454e-07
7.74116e-08
8.52537e-09
1.56909e-08
1.0147e-07
1.91004e-07
2.05156e-07
1.75961e-07
7.76202e-08
0
0
8.82717e-08
4.91291e-07
6.38747e-07
7.49045e-07
1.73262e-07
0
0
0
0
0
0
0
0
0
0
3.03218e-06
6.80987e-06
7.36296e-06
0
0
0
0
0
0
0
0
0
0
0
0
8.53079e-06
8.47467e-06
5.25589e-06
2.42377e-06
6.87628e-07
2.95198e-07
1.13652e-07
2.87291e-07
1.20059e-06
1.42166e-06
1.32105e-06
0
0
0
0
0
0
1.98556e-07
1.5313e-06
2.8217e-06
3.706e-06
3.98973e-06
3.93834e-06
3.53453e-06
3.22331e-06
3.49371e-06
4.48732e-06
6.23182e-06
8.73619e-06
1.10029e-05
1.00022e-05
3.4401e-07
0
0
0
0
0
0
0
0
0
0
0
0
0
0
6.84501e-07
1.98805e-06
2.08925e-06
1.63541e-06
6.36665e-07
1.08489e-06
5.50551e-06
7.32653e-06
5.72657e-06
1.88555e-06
0
1.84898e-07
1.70784e-06
1.32462e-06
2.96439e-07
0
0
0
0
0
1.08593e-07
3.47842e-07
4.81862e-07
4.38302e-07
1.84822e-07
0
0
0
0
0
0
0
1.24129e-06
1.6211e-06
1.35851e-06
1.07628e-06
8.55581e-07
5.73715e-07
1.20362e-07
0
0
0
0
0
0
0
0
1.1715e-06
1.42861e-06
8.48891e-07
9.97843e-08
0
0
0
0
0
0
0
0
0
0
0
0
0
3.31454e-07
4.53653e-07
3.55252e-07
3.54042e-07
4.26066e-07
3.92128e-07
2.55138e-07
1.48383e-07
7.41421e-08
1.13393e-08
0
0
0
0
0
0
0
0
0
0
0
0
0
0
4.18872e-08
7.30566e-07
9.05139e-07
7.61395e-07
5.92159e-07
4.43928e-07
2.73106e-07
1.28275e-07
7.26323e-08
1.09496e-07
2.2082e-07
2.76829e-07
2.64138e-07
2.05186e-07
1.20394e-07
8.23111e-08
1.41773e-07
2.96033e-07
3.82619e-07
4.98239e-07
3.72905e-07
0
0
0
0
0
0
0
0
0
0
2.29256e-06
3.7464e-06
3.80268e-06
0
0
0
0
0
0
0
0
0
0
0
0
4.18085e-06
3.96225e-06
1.63654e-06
3.99921e-07
9.09835e-08
9.88119e-07
2.08436e-06
3.23516e-06
4.19714e-06
4.07212e-06
4.942e-06
0
0
0
0
0
0
0
8.71834e-07
2.29156e-06
2.92494e-06
3.18142e-06
3.47163e-06
3.7191e-06
3.9071e-06
4.08343e-06
3.92762e-06
3.15297e-06
1.56324e-06
0
0
0
0
0
0
0
0
0
0
0
0
0
0
0
0
0
0
2.1382e-07
6.09418e-07
2.08576e-07
0
0
6.92719e-07
5.69019e-06
6.1261e-06
2.88939e-06
0
0
2.32846e-07
1.00395e-06
8.96528e-07
4.61123e-07
9.74042e-10
0
0
0
0
0
9.93064e-08
1.60386e-07
1.14243e-07
0
0
0
0
0
0
4.42564e-07
1.32519e-06
1.36413e-06
1.19468e-06
1.05835e-06
9.15236e-07
5.81591e-07
0
0
0
0
0
0
0
2.15517e-07
4.94069e-07
6.45795e-07
1.05301e-07
0
0
0
0
0
0
0
0
0
0
3.24602e-07
4.99258e-07
0
0
0
7.98371e-08
4.36294e-07
4.30726e-07
4.36088e-07
5.85795e-07
6.61895e-07
5.03751e-07
3.16478e-07
1.88191e-07
1.01087e-07
3.16819e-08
0
0
0
0
0
0
0
0
8.96794e-08
0
0
0
0
1.49004e-07
1.14481e-06
1.41601e-06
1.19729e-06
9.00331e-07
6.79737e-07
4.79462e-07
2.74127e-07
1.50281e-07
1.28404e-07
2.05732e-07
2.95905e-07
3.16092e-07
2.84872e-07
2.0675e-07
1.56187e-07
1.46886e-07
1.6334e-07
1.99344e-07
3.0856e-07
3.82532e-07
0
0
0
0
0
0
0
0
0
3.92868e-06
1.79691e-06
1.6983e-06
1.12772e-06
0
0
0
0
0
0
0
0
0
0
0
0
0
0
0
0
0
2.00946e-06
4.52206e-06
6.41944e-06
7.08129e-06
6.61309e-06
9.16146e-06
0
0
0
0
0
0
0
1.67828e-07
1.4084e-06
1.99385e-06
2.29164e-06
2.3948e-06
2.21855e-06
1.84676e-06
1.31558e-06
7.04116e-07
4.19753e-08
0
0
0
0
0
0
0
0
0
0
0
0
1.27036e-06
2.66288e-06
1.81838e-06
0
0
0
0
5.2356e-07
7.43681e-07
2.89582e-07
0
0
0
9.60212e-07
4.66464e-06
3.26766e-06
1.38285e-07
0
0
0
4.14638e-07
5.13794e-07
3.48205e-07
7.13929e-08
0
0
0
0
0
0
0
0
0
0
0
0
0
0
7.54111e-07
1.06447e-06
1.08111e-06
1.08331e-06
1.0653e-06
8.10635e-07
2.10147e-07
0
0
0
0
0
1.51407e-06
2.66545e-06
1.91849e-06
7.98374e-07
0
0
0
0
0
0
0
0
2.29273e-07
0
0
1.57317e-06
7.94107e-07
0
0
0
6.50336e-08
4.31774e-07
4.51023e-07
4.36633e-07
5.82875e-07
7.66028e-07
6.79755e-07
4.67682e-07
3.08645e-07
1.9588e-07
1.09005e-07
3.69334e-08
0
0
0
0
0
0
0
3.68678e-07
0
0
0
0
4.86265e-07
1.61966e-06
1.95005e-06
1.69706e-06
1.24681e-06
9.11942e-07
6.6863e-07
4.31889e-07
2.43302e-07
1.66746e-07
1.90618e-07
2.76164e-07
3.20099e-07
3.07848e-07
2.4112e-07
1.99068e-07
1.746e-07
1.09798e-07
7.80753e-08
1.58577e-07
3.13053e-07
5.6873e-08
0
0
0
0
0
0
0
0
5.89558e-06
1.72187e-06
3.7244e-07
0
0
0
0
0
0
0
0
0
0
0
0
0
0
0
0
0
0
3.65514e-06
7.42511e-06
9.55565e-06
9.67992e-06
8.77105e-06
1.21856e-05
9.94904e-07
0
0
0
0
0
0
0
4.37907e-07
1.07946e-06
1.29788e-06
1.37496e-06
1.27989e-06
9.9134e-07
6.03631e-07
1.69284e-07
0
0
0
0
0
0
0
0
0
0
0
0
0
2.29389e-07
2.0475e-06
2.97767e-06
1.4327e-06
0
0
5.49198e-07
1.53818e-06
1.23296e-06
5.42007e-07
3.72533e-08
0
0
0
9.29127e-07
2.14593e-06
3.56772e-07
0
0
0
0
1.35176e-08
1.73158e-07
9.87632e-08
0
0
0
0
0
0
3.81941e-08
2.10844e-07
4.28764e-07
6.13517e-07
3.0378e-07
0
0
0
5.7165e-07
1.04942e-06
1.17897e-06
1.31357e-06
1.4378e-06
1.23961e-06
5.55608e-07
0
0
0
0
0
0
4.94568e-06
2.87214e-06
1.05637e-06
0
0
0
0
0
0
0
0
5.52047e-07
8.23644e-07
1.45911e-06
2.27133e-06
8.2647e-08
0
0
0
4.1987e-07
7.03038e-07
5.69201e-07
4.41577e-07
5.04215e-07
7.20836e-07
7.47568e-07
5.40207e-07
3.76989e-07
2.67072e-07
1.75471e-07
1.0219e-07
4.22347e-08
0
0
0
0
0
0
3.50079e-07
0
0
0
0
1.12776e-06
2.06221e-06
2.31355e-06
2.13611e-06
1.59253e-06
1.14125e-06
8.33772e-07
5.8173e-07
3.50399e-07
2.13883e-07
1.87847e-07
2.40474e-07
2.98799e-07
3.13951e-07
2.58085e-07
2.1773e-07
2.00322e-07
1.04577e-07
4.34258e-09
3.92289e-08
2.12153e-07
1.32152e-07
0
0
0
0
0
0
0
0
5.14281e-06
2.33722e-06
0
0
0
0
0
0
0
0
0
0
0
0
0
0
0
0
0
0
5.61275e-07
6.08555e-06
1.05741e-05
1.23248e-05
1.18237e-05
1.01929e-05
1.09906e-05
0
0
0
0
0
0
0
0
0
6.24568e-08
4.24598e-07
6.45512e-07
7.0142e-07
5.54095e-07
2.68818e-07
0
0
0
0
0
0
0
0
0
0
0
0
0
2.9144e-07
1.05063e-06
1.80619e-06
2.32962e-06
1.68702e-06
3.66363e-07
1.84807e-07
1.54093e-06
1.98564e-06
1.39173e-06
6.4671e-07
1.88992e-07
0
0
0
0
0
0
0
0
0
0
0
0
0
0
0
0
0
0
1.71376e-08
2.61629e-07
6.4591e-07
1.18531e-06
1.70622e-06
1.99062e-07
0
0
0
8.3685e-07
1.27542e-06
1.42346e-06
1.62175e-06
1.79295e-06
1.4921e-06
5.32309e-07
0
0
0
0
0
0
6.11659e-06
3.68704e-06
1.63766e-06
1.39329e-07
0
0
0
0
0
0
0
0
5.75731e-07
2.22693e-06
1.72801e-06
0
0
0
0
1.0923e-06
1.29486e-06
9.93004e-07
6.50077e-07
5.03756e-07
6.13118e-07
7.20155e-07
5.66364e-07
3.9679e-07
3.00671e-07
2.21407e-07
1.46666e-07
9.62608e-08
5.72691e-08
2.27878e-09
0
0
0
0
3.07041e-07
3.3866e-07
0
0
9.21946e-07
1.84343e-06
2.32823e-06
2.39998e-06
2.2768e-06
1.8283e-06
1.31735e-06
9.65356e-07
7.08784e-07
4.6468e-07
2.71596e-07
1.90675e-07
2.06851e-07
2.74105e-07
3.20382e-07
2.76809e-07
2.16701e-07
2.06955e-07
1.22002e-07
0
0
1.07486e-07
1.37931e-07
0
0
0
0
0
0
0
0
3.62755e-06
4.01506e-06
0
0
0
0
0
0
3.1291e-06
0
0
0
0
0
0
0
0
0
0
0
2.86369e-06
9.15428e-06
1.35792e-05
1.45161e-05
1.34209e-05
1.07078e-05
5.85882e-06
0
0
0
0
0
0
0
0
0
0
0
1.03052e-07
2.46712e-07
2.23147e-07
8.18878e-08
0
0
0
0
0
0
0
0
0
0
0
9.7272e-08
5.92516e-07
1.21027e-06
1.41095e-06
1.47815e-06
2.07933e-06
1.78887e-06
9.54129e-07
7.45324e-07
1.67281e-06
1.98411e-06
1.25566e-06
4.76563e-07
1.4555e-07
1.23177e-08
0
0
0
0
0
0
0
0
0
0
0
0
0
0
0
0
0
6.3783e-08
5.06903e-07
1.22704e-06
2.3772e-06
3.80999e-06
0
0
0
3.70665e-07
1.28985e-06
1.58132e-06
1.66354e-06
1.85879e-06
1.95642e-06
1.4496e-06
1.88211e-07
0
0
0
0
0
0
6.58571e-06
4.658e-06
2.41944e-06
7.27578e-07
0
0
0
0
0
0
0
0
0
2.08337e-06
0
0
0
0
6.14024e-07
1.82706e-06
1.9072e-06
1.51648e-06
1.0464e-06
6.98949e-07
5.89052e-07
6.25603e-07
5.52155e-07
3.91172e-07
2.91797e-07
2.41478e-07
1.83296e-07
1.28935e-07
9.92026e-08
7.55389e-08
3.55509e-08
0
0
0
4.64255e-07
8.16033e-07
9.77101e-07
1.2611e-06
1.65453e-06
2.00077e-06
2.18573e-06
2.19775e-06
2.14504e-06
1.92726e-06
1.44061e-06
1.05657e-06
7.96576e-07
5.67596e-07
3.42098e-07
1.98628e-07
1.66597e-07
2.27442e-07
3.10938e-07
3.03776e-07
2.27297e-07
2.05332e-07
1.42434e-07
0
0
1.88001e-08
1.09178e-07
0
0
0
0
0
0
0
0
2.15996e-06
7.06581e-06
0
0
0
0
0
0
7.45536e-06
3.03345e-05
2.52486e-05
1.49163e-05
7.33449e-06
0
0
0
0
0
0
0
6.22581e-06
1.24218e-05
1.60623e-05
1.60456e-05
1.44162e-05
1.04539e-05
2.22451e-06
0
0
0
0
0
0
0
0
0
0
0
0
0
0
0
2.87647e-08
5.09528e-08
8.1373e-08
1.17615e-07
1.64275e-07
2.09181e-07
2.33243e-07
2.3961e-07
2.44872e-07
2.89379e-07
5.02636e-07
1.07239e-06
1.92296e-06
1.98779e-06
1.437e-06
1.62437e-06
1.76473e-06
1.47529e-06
1.02287e-06
1.05659e-06
2.09254e-06
1.77899e-06
1.04846e-06
4.22126e-07
9.16691e-08
0
0
0
0
0
0
0
0
0
0
0
0
0
0
0
0
0
0
0
5.92366e-07
1.71028e-06
3.80143e-06
7.24057e-06
0
0
0
1.10205e-06
1.71119e-06
1.82184e-06
1.82854e-06
1.98996e-06
1.97683e-06
1.2761e-06
0
0
0
0
0
0
3.95558e-06
1.07856e-05
7.4528e-06
4.1547e-06
1.74691e-06
0
0
0
0
0
0
0
0
0
2.8592e-06
3.76437e-06
0
0
0
1.44537e-06
2.44174e-06
2.33828e-06
1.84578e-06
1.30987e-06
8.78421e-07
6.16693e-07
5.51943e-07
5.18847e-07
3.96018e-07
2.7547e-07
2.24289e-07
1.97157e-07
1.59262e-07
1.24718e-07
1.06576e-07
9.72555e-08
9.25842e-08
1.1455e-07
1.93567e-07
3.19353e-07
3.34444e-07
4.53379e-07
7.57612e-07
1.20922e-06
1.49346e-06
1.65626e-06
1.77871e-06
1.85509e-06
1.8535e-06
1.5585e-06
1.14047e-06
8.66695e-07
6.56523e-07