/*--------------------------------*- C++ -*----------------------------------*\
  =========                 |
  \\      /  F ield         | OpenFOAM: The Open Source CFD Toolbox
   \\    /   O peration     | Website:  https://openfoam.org
    \\  /    A nd           | Version:  6
     \\/     M anipulation  |
\*---------------------------------------------------------------------------*/
FoamFile
{
    version     2.0;
    format      ascii;
    class       surfaceScalarField;
    location    "0.25";
    object      phi;
}
// * * * * * * * * * * * * * * * * * * * * * * * * * * * * * * * * * * * * * //

dimensions      [0 3 -1 0 0 0 0];

internalField   nonuniform List<scalar> 
24170
(
3.14531e-06
8.62159e-08
3.0274e-06
1.17914e-07
2.90193e-06
1.25462e-07
2.778e-06
1.23938e-07
2.66669e-06
1.11301e-07
2.5716e-06
9.50902e-08
2.48298e-06
8.86243e-08
2.38797e-06
9.50147e-08
2.28524e-06
1.02721e-07
2.18323e-06
1.02017e-07
2.09037e-06
9.28549e-08
2.00515e-06
8.52228e-08
1.91823e-06
8.69182e-08
1.8167e-06
1.01532e-07
1.68335e-06
1.33351e-07
1.50924e-06
1.74106e-07
1.26754e-06
2.41708e-07
3.32639e-07
9.34897e-07
3.44401e-06
5.06036e-08
3.45537e-06
1.06558e-07
3.45426e-06
1.26574e-07
3.44339e-06
1.34802e-07
3.43234e-06
1.22357e-07
3.42216e-06
1.05263e-07
3.41011e-06
1.00677e-07
3.39471e-06
1.10416e-07
3.37728e-06
1.20155e-07
3.35906e-06
1.20236e-07
3.33968e-06
1.1223e-07
3.31554e-06
1.09361e-07
3.28105e-06
1.21407e-07
3.22933e-06
1.53254e-07
3.15519e-06
2.07496e-07
3.04854e-06
2.80749e-07
2.90678e-06
3.83468e-07
5.15106e-07
2.72432e-06
3.69269e-06
-5.97879e-08
3.73613e-06
6.31143e-08
3.73644e-06
1.26263e-07
3.7284e-06
1.42845e-07
3.72102e-06
1.2974e-07
3.71492e-06
1.11365e-07
3.70898e-06
1.0661e-07
3.70098e-06
1.18417e-07
3.68808e-06
1.33053e-07
3.66882e-06
1.39502e-07
3.64389e-06
1.37159e-07
3.61686e-06
1.36387e-07
3.59023e-06
1.48037e-07
3.56344e-06
1.80043e-07
3.53385e-06
2.37094e-07
3.49462e-06
3.19971e-07
3.44781e-06
4.30277e-07
5.64792e-07
3.39813e-06
3.99339e-06
-1.01285e-07
4.03052e-06
2.5988e-08
4.0466e-06
1.10184e-07
4.04356e-06
1.45878e-07
4.03452e-06
1.38782e-07
4.02838e-06
1.1751e-07
4.02209e-06
1.12897e-07
4.00762e-06
1.32885e-07
3.98038e-06
1.60292e-07
3.94281e-06
1.77081e-07
3.90133e-06
1.78637e-07
3.86267e-06
1.75046e-07
3.83007e-06
1.80635e-07
3.80343e-06
2.06684e-07
3.78174e-06
2.58784e-07
3.76262e-06
3.39085e-07
3.75018e-06
4.42718e-07
5.65783e-07
3.74919e-06
4.10629e-06
-7.23833e-08
4.14023e-06
-7.95213e-09
4.18311e-06
6.73112e-08
4.21337e-06
1.15614e-07
4.23304e-06
1.1911e-07
4.24771e-06
1.02846e-07
4.25506e-06
1.05545e-07
4.25299e-06
1.34954e-07
4.24439e-06
1.6889e-07
4.23451e-06
1.86963e-07
4.22543e-06
1.87722e-07
4.21454e-06
1.85932e-07
4.19726e-06
1.97913e-07
4.17072e-06
2.33226e-07
4.13736e-06
2.92137e-07
4.10316e-06
3.7329e-07
4.07806e-06
4.67814e-07
5.7344e-07
4.07041e-06
4.42185e-06
-7.26303e-08
4.43053e-06
-1.66244e-08
4.47541e-06
2.24259e-08
4.49856e-06
9.24671e-08
4.49021e-06
1.27456e-07
4.47292e-06
1.20136e-07
4.46826e-06
1.10208e-07
4.48103e-06
1.22181e-07
4.50146e-06
1.48462e-07
4.51574e-06
1.72685e-07
4.51435e-06
1.89112e-07
4.49513e-06
2.05154e-07
4.46209e-06
2.30947e-07
4.42208e-06
2.73239e-07
4.3832e-06
3.31016e-07
4.35276e-06
4.03733e-07
4.33706e-06
4.83511e-07
5.71494e-07
4.33901e-06
4.89051e-06
-3.73737e-08
4.89846e-06
-2.45719e-08
4.90819e-06
1.26971e-08
4.90655e-06
9.41078e-08
4.89767e-06
1.36337e-07
4.87857e-06
1.39237e-07
4.85105e-06
1.37721e-07
4.82382e-06
1.49417e-07
4.80218e-06
1.70102e-07
4.78549e-06
1.89372e-07
4.7713e-06
2.03306e-07
4.75873e-06
2.17719e-07
4.74841e-06
2.41265e-07
4.74014e-06
2.81515e-07
4.73292e-06
3.38235e-07
4.72704e-06
4.09611e-07
4.72301e-06
4.87545e-07
5.69044e-07
4.72546e-06
5.14627e-06
4.99225e-08
5.12428e-06
-2.58102e-09
5.17048e-06
-3.35056e-08
5.21455e-06
5.00324e-08
5.22837e-06
1.22525e-07
5.22474e-06
1.42867e-07
5.22705e-06
1.35411e-07
5.24479e-06
1.31678e-07
5.26923e-06
1.45659e-07
5.28384e-06
1.74763e-07
5.27651e-06
2.10636e-07
5.24552e-06
2.4871e-07
5.199e-06
2.87786e-07
5.15016e-06
3.30352e-07
5.1105e-06
3.77897e-07
5.08698e-06
4.33129e-07
5.08108e-06
4.93445e-07
5.59294e-07
5.09083e-06
5.62916e-06
-4.11829e-08
5.58974e-06
3.68397e-08
5.52754e-06
2.86971e-08
5.49222e-06
8.53462e-08
5.48565e-06
1.29097e-07
5.49485e-06
1.33663e-07
5.50678e-06
1.23489e-07
5.51464e-06
1.23818e-07
5.51723e-06
1.43068e-07
5.5159e-06
1.76093e-07
5.513e-06
2.13534e-07
5.51149e-06
2.50218e-07
5.51359e-06
2.85687e-07
5.51959e-06
3.24351e-07
5.52791e-06
3.69582e-07
5.5376e-06
4.23439e-07
5.54849e-06
4.8255e-07
5.4483e-07
5.56295e-06
5.97042e-06
-9.52761e-09
5.98858e-06
1.86741e-08
5.94516e-06
7.21186e-08
5.8914e-06
1.39105e-07
5.88722e-06
1.33277e-07
5.92703e-06
9.38529e-08
5.97065e-06
7.98697e-08
5.98953e-06
1.04941e-07
5.98041e-06
1.52183e-07
5.95514e-06
2.0136e-07
5.92704e-06
2.41633e-07
5.90467e-06
2.72595e-07
5.89175e-06
2.98608e-07
5.88951e-06
3.26583e-07
5.8977e-06
3.61393e-07
5.91503e-06
4.06118e-07
5.93988e-06
4.57694e-07
5.13691e-07
5.97102e-06
6.33338e-06
-4.25166e-08
6.3647e-06
-1.26446e-08
6.37778e-06
5.90399e-08
6.39847e-06
1.18415e-07
6.40673e-06
1.25014e-07
6.39023e-06
1.10352e-07
6.36299e-06
1.07116e-07
6.34545e-06
1.22478e-07
6.34615e-06
1.51483e-07
6.35969e-06
1.87816e-07
6.37473e-06
2.26595e-07
6.38252e-06
2.64809e-07
6.38038e-06
3.0074e-07
6.3719e-06
3.35063e-07
6.36463e-06
3.68669e-07
6.36546e-06
4.05283e-07
6.3809e-06
4.4226e-07
4.8402e-07
6.41057e-06
5.63731e-06
-3.60642e-08
5.61601e-06
8.66043e-09
5.64241e-06
3.2638e-08
5.68277e-06
7.80515e-08
5.69652e-06
1.11263e-07
5.68125e-06
1.2563e-07
5.66228e-06
1.26078e-07
5.66209e-06
1.22668e-07
5.6856e-06
1.27972e-07
5.72329e-06
1.50135e-07
5.76066e-06
1.8922e-07
5.78638e-06
2.39086e-07
5.7958e-06
2.91325e-07
5.79078e-06
3.40083e-07
5.77808e-06
3.81367e-07
5.76668e-06
4.16686e-07
5.76369e-06
4.45253e-07
4.70666e-07
5.77704e-06
6.94654e-06
2.58425e-08
6.98722e-06
-3.20253e-08
6.96981e-06
5.00491e-08
6.96394e-06
8.39253e-08
6.99563e-06
7.95736e-08
7.02633e-06
9.49214e-08
7.02461e-06
1.27806e-07
6.99072e-06
1.56557e-07
6.9459e-06
1.72789e-07
6.91332e-06
1.82714e-07
6.90661e-06
1.9593e-07
6.9278e-06
2.17898e-07
6.97133e-06
2.47796e-07
7.02813e-06
2.83284e-07
7.0887e-06
3.20797e-07
7.14625e-06
3.59132e-07
7.19636e-06
3.9514e-07
4.29533e-07
7.2375e-06
8.61341e-06
9.46638e-08
8.59283e-06
-1.14483e-08
8.54898e-06
9.38991e-08
8.53234e-06
1.00571e-07
8.55826e-06
5.36488e-08
8.59739e-06
5.5791e-08
8.61573e-06
1.09474e-07
8.59789e-06
1.74391e-07
8.55265e-06
2.18033e-07
8.5019e-06
2.33458e-07
8.46491e-06
2.32922e-07
8.44985e-06
2.32962e-07
8.45515e-06
2.42495e-07
8.4745e-06
2.6393e-07
8.5029e-06
2.92402e-07
8.5371e-06
3.24934e-07
8.57664e-06
3.55599e-07
3.82038e-07
8.62413e-06
1.04276e-05
1.32363e-07
1.0382e-05
3.41778e-08
1.03542e-05
1.21655e-07
1.04106e-05
4.41837e-08
1.04914e-05
-2.7142e-08
1.05356e-05
1.15996e-08
1.05319e-05
1.13202e-07
1.05056e-05
2.00663e-07
1.04876e-05
2.36054e-07
1.04939e-05
2.27148e-07
1.05236e-05
2.03172e-07
1.05665e-05
1.90113e-07
1.06101e-05
1.98889e-07
1.06454e-05
2.28592e-07
1.06695e-05
2.6831e-07
1.06857e-05
3.08786e-07
1.07014e-05
3.39895e-07
3.59751e-07
1.07237e-05
1.29832e-05
-1.43048e-07
1.29667e-05
5.06659e-08
1.29504e-05
1.37937e-07
1.29153e-05
7.92908e-08
1.28394e-05
4.87957e-08
1.27625e-05
8.84933e-08
1.27251e-05
1.50528e-07
1.27356e-05
1.90171e-07
1.27724e-05
1.99328e-07
1.2805e-05
1.94454e-07
1.28146e-05
1.93582e-07
1.28e-05
2.04792e-07
1.27725e-05
2.26342e-07
1.27478e-05
2.533e-07
1.2738e-05
2.78063e-07
1.275e-05
2.96816e-07
1.27848e-05
3.05148e-07
3.02549e-07
1.2842e-05
1.52169e-05
-9.57688e-09
1.5188e-05
7.9555e-08
1.5316e-05
9.89751e-09
1.54583e-05
-6.29909e-08
1.55331e-05
-2.6038e-08
1.55497e-05
7.1955e-08
1.5545e-05
1.55245e-07
1.5545e-05
1.90134e-07
1.55557e-05
1.88655e-07
1.55733e-05
1.76853e-07
1.55967e-05
1.70119e-07
1.56302e-05
1.71321e-07
1.56784e-05
1.78164e-07
1.57429e-05
1.8874e-07
1.58197e-05
2.01306e-07
1.59027e-05
2.13845e-07
1.59838e-05
2.24059e-07
2.30098e-07
1.60562e-05
1.88159e-05
3.04887e-08
1.89641e-05
-6.8616e-08
1.90438e-05
-6.9881e-08
1.90037e-05
-2.28562e-08
1.89137e-05
6.39338e-08
1.88298e-05
1.5592e-07
1.87867e-05
1.98309e-07
1.87953e-05
1.81538e-07
1.8841e-05
1.42987e-07
1.88971e-05
1.20751e-07
1.89432e-05
1.23976e-07
1.89749e-05
1.39651e-07
1.90008e-05
1.5226e-07
1.90347e-05
1.54787e-07
1.90866e-05
1.49418e-07
1.91581e-05
1.42341e-07
1.92442e-05
1.38005e-07
1.39346e-07
1.93349e-05
2.29388e-05
8.46738e-08
2.28347e-05
3.54292e-08
2.2799e-05
-3.41433e-08
2.28326e-05
-5.65135e-08
2.29083e-05
-1.17456e-08
2.30012e-05
6.30456e-08
2.3091e-05
1.08526e-07
2.31641e-05
1.08447e-07
2.32154e-05
9.16382e-08
2.32461e-05
9.00157e-08
2.32603e-05
1.09833e-07
2.32637e-05
1.36276e-07
2.32641e-05
1.51861e-07
2.32696e-05
1.49289e-07
2.32863e-05
1.32706e-07
2.33166e-05
1.11973e-07
2.33597e-05
9.49236e-08
8.62791e-08
2.34128e-05
1.69226e-05
1.79751e-07
1.67452e-05
2.12879e-07
1.66309e-05
8.01456e-08
1.66046e-05
-3.02627e-08
1.665e-05
-5.71147e-08
1.67292e-05
-1.61537e-08
1.68008e-05
3.69695e-08
1.68487e-05
6.05045e-08
1.68858e-05
5.45645e-08
1.69322e-05
4.35864e-08
1.69961e-05
4.59368e-08
1.70696e-05
6.27413e-08
1.71371e-05
8.44248e-08
1.71852e-05
1.01186e-07
1.72084e-05
1.09453e-07
1.72098e-05
1.10575e-07
1.71967e-05
1.08026e-07
1.06281e-07
1.71767e-05
1.47299e-05
1.38987e-07
1.46658e-05
2.77033e-07
1.4576e-05
1.69918e-07
1.45206e-05
2.50885e-08
1.45121e-05
-4.85968e-08
1.45338e-05
-3.78654e-08
1.45712e-05
-3.51286e-10
1.46206e-05
1.10951e-08
1.46822e-05
-7.06529e-09
1.47518e-05
-2.60092e-08
1.4819e-05
-2.12252e-08
1.48723e-05
9.37924e-09
1.49057e-05
5.108e-08
1.49207e-05
8.61314e-08
1.49255e-05
1.04671e-07
1.49289e-05
1.07169e-07
1.49381e-05
9.87829e-08
8.63694e-08
1.49581e-05
1.28182e-05
4.08363e-08
1.30042e-05
9.10606e-08
1.30318e-05
1.42324e-07
1.29385e-05
1.1841e-07
1.28122e-05
7.77044e-08
1.27212e-05
5.31088e-08
1.26918e-05
2.9069e-08
1.27107e-05
-7.85036e-09
1.27535e-05
-4.98909e-08
1.28051e-05
-7.75421e-08
1.28596e-05
-7.57462e-08
1.2913e-05
-4.40005e-08
1.2959e-05
5.09983e-09
1.29902e-05
5.48857e-08
1.30035e-05
9.13828e-08
1.30012e-05
1.09437e-07
1.29904e-05
1.09564e-07
9.69171e-08
1.29799e-05
1.13153e-05
1.17727e-07
1.1276e-05
1.30327e-07
1.12484e-05
1.69933e-07
1.1226e-05
1.40847e-07
1.12167e-05
8.69574e-08
1.12202e-05
4.96412e-08
1.12288e-05
2.04073e-08
1.12325e-05
-1.15192e-08
1.12261e-05
-4.34655e-08
1.12131e-05
-6.45655e-08
1.12017e-05
-6.43475e-08
1.11981e-05
-4.04158e-08
1.12038e-05
-6.35033e-10
1.12168e-05
4.18857e-08
1.12346e-05
7.36495e-08
1.12561e-05
8.78874e-08
1.12822e-05
8.34666e-08
6.49624e-08
1.13142e-05
9.55334e-06
-6.10693e-10
9.66249e-06
2.11827e-08
9.75812e-06
7.43006e-08
9.81396e-06
8.50071e-08
9.83954e-06
6.1379e-08
9.85949e-06
2.96907e-08
9.87503e-06
4.87196e-09
9.87115e-06
-7.64241e-09
9.84118e-06
-1.34941e-08
9.79489e-06
-1.82817e-08
9.75e-06
-1.94585e-08
9.72133e-06
-1.17434e-08
9.71587e-06
4.82814e-09
9.73405e-06
2.37046e-08
9.77137e-06
3.63254e-08
9.8212e-06
3.80583e-08
9.87593e-06
2.87411e-08
1.15204e-08
9.92937e-06
8.27304e-06
-2.33369e-08
8.30936e-06
-1.51405e-08
8.39373e-06
-1.00708e-08
8.48809e-06
-9.35579e-09
8.5522e-06
-2.72868e-09
8.56477e-06
1.71267e-08
8.53142e-06
3.82205e-08
8.48081e-06
4.29696e-08
8.44241e-06
2.48989e-08
8.43128e-06
-7.15364e-09
8.44809e-06
-3.62643e-08
8.48607e-06
-4.9721e-08
8.53658e-06
-4.56836e-08
8.59166e-06
-3.13755e-08
8.64474e-06
-1.67504e-08
8.69095e-06
-8.15289e-09
8.72779e-06
-8.10073e-09
-1.30908e-08
8.7524e-06
7.19089e-06
5.48249e-08
7.2037e-06
-2.79413e-08
7.26689e-06
-7.32668e-08
7.31171e-06
-5.41745e-08
7.32724e-06
-1.82628e-08
7.32965e-06
1.47236e-08
7.34246e-06
2.54077e-08
7.37882e-06
6.60942e-09
7.43291e-06
-2.91889e-08
7.48785e-06
-6.20918e-08
7.52851e-06
-7.69261e-08
7.54799e-06
-6.92043e-08
7.54742e-06
-4.51155e-08
7.5323e-06
-1.62506e-08
7.50932e-06
6.22481e-09
7.48412e-06
1.7048e-08
7.46042e-06
1.56034e-08
3.65805e-09
7.44367e-06
6.39738e-06
-5.98063e-08
6.38999e-06
-2.05516e-08
6.36181e-06
-4.5091e-08
6.33311e-06
-2.54748e-08
6.32805e-06
-1.31979e-08
6.35886e-06
-1.60879e-08
6.40686e-06
-2.25937e-08
6.44429e-06
-3.08136e-08
6.45865e-06
-4.35497e-08
6.45717e-06
-6.06107e-08
6.45575e-06
-7.55078e-08
6.46637e-06
-7.98307e-08
6.49174e-06
-7.04787e-08
6.52754e-06
-5.20515e-08
6.56639e-06
-3.26319e-08
6.60194e-06
-1.84996e-08
6.63008e-06
-1.25393e-08
-1.29887e-08
6.64673e-06
5.65175e-06
3.52311e-08
5.65813e-06
-2.69297e-08
5.64286e-06
-2.98183e-08
5.63814e-06
-2.07535e-08
5.64782e-06
-2.2883e-08
5.661e-06
-2.92687e-08
5.67475e-06
-3.63443e-08
5.68766e-06
-4.37177e-08
5.69374e-06
-4.96352e-08
5.68747e-06
-5.43383e-08
5.67036e-06
-5.83917e-08
5.65107e-06
-6.05483e-08
5.63966e-06
-5.90707e-08
5.64226e-06
-5.46447e-08
5.65904e-06
-4.94149e-08
5.68616e-06
-4.56159e-08
5.71799e-06
-4.43756e-08
-4.50218e-08
5.75003e-06
4.84446e-06
-1.111e-07
4.89222e-06
-7.46831e-08
4.9083e-06
-4.59026e-08
4.91119e-06
-2.3638e-08
4.91112e-06
-2.282e-08
4.92479e-06
-4.29367e-08
4.9542e-06
-6.57567e-08
4.9864e-06
-7.59152e-08
5.00681e-06
-7.0043e-08
5.00936e-06
-5.68935e-08
4.99795e-06
-4.69775e-08
4.98149e-06
-4.40941e-08
4.9679e-06
-4.5474e-08
4.96028e-06
-4.70243e-08
4.95761e-06
-4.67481e-08
4.95692e-06
-4.492e-08
4.95576e-06
-4.32206e-08
-4.29407e-08
4.95368e-06
4.08926e-06
4.01457e-06
3.96867e-06
3.94503e-06
3.92221e-06
3.87928e-06
3.81352e-06
3.73761e-06
3.66756e-06
3.61067e-06
3.56369e-06
3.5196e-06
3.47412e-06
3.4271e-06
3.38035e-06
3.33543e-06
3.29221e-06
3.24927e-06
-2.5167e-07
2.5167e-07
-4.44591e-07
1.92922e-07
-5.92084e-07
1.47492e-07
-6.98354e-07
1.06271e-07
-7.65095e-07
6.67412e-08
-7.51006e-07
-1.40896e-08
-6.16941e-07
-1.34065e-07
-3.47752e-07
-2.69189e-07
4.82699e-08
-3.96022e-07
5.48485e-07
-5.00215e-07
1.11633e-06
-5.67848e-07
1.7161e-06
-5.99763e-07
2.31902e-06
-6.02925e-07
2.90253e-06
-5.83505e-07
3.44909e-06
-5.46561e-07
3.94459e-06
-4.95506e-07
4.37755e-06
-4.32956e-07
4.73861e-06
-3.61062e-07
5.02023e-06
-2.81618e-07
5.21596e-06
-1.95735e-07
5.32058e-06
-1.04616e-07
5.32888e-06
-8.30296e-09
5.23567e-06
9.32109e-08
5.03845e-06
1.97217e-07
4.7371e-06
3.01353e-07
4.33376e-06
4.03345e-07
3.83083e-06
5.02923e-07
3.23621e-06
5.94623e-07
2.55228e-06
6.83931e-07
1.80207e-06
7.50213e-07
1.06289e-06
7.39176e-07
4.38631e-07
6.24258e-07
-8.35538e-08
5.22185e-07
-4.59941e-07
3.76387e-07
-6.31517e-07
1.71576e-07
-7.22462e-07
9.09446e-08
-7.47037e-07
2.45756e-08
-6.55039e-07
-9.19986e-08
-4.75335e-07
-1.79704e-07
-2.35309e-07
-2.40025e-07
7.53792e-08
-3.10688e-07
5.54991e-07
-4.79612e-07
1.13079e-06
-5.75801e-07
1.6419e-06
-5.11106e-07
2.14403e-06
-5.02131e-07
2.69552e-06
-5.51487e-07
3.13448e-06
-4.3896e-07
3.27001e-06
-1.35534e-07
3.21595e-06
5.40613e-08
3.02332e-06
1.92629e-07
2.47599e-06
5.47331e-07
1.73608e-06
7.39904e-07
1.44573e-06
2.90351e-07
1.43084e-06
1.48963e-08
1.33365e-06
9.71877e-08
6.6963e-07
6.64019e-07
-4.54289e-07
1.12392e-06
-1.55174e-06
1.09745e-06
-2.56864e-06
1.0169e-06
-3.48298e-06
9.14342e-07
-4.31438e-06
8.314e-07
-5.06581e-06
7.51423e-07
-5.75813e-06
6.92327e-07
-6.39795e-06
6.39818e-07
-6.9963e-06
5.98354e-07
-7.55361e-06
5.57306e-07
-8.07251e-06
5.18905e-07
-8.55051e-06
4.77996e-07
-8.98919e-06
4.38679e-07
-9.39187e-06
4.02681e-07
-9.76858e-06
3.76708e-07
-1.01346e-05
3.66021e-07
-1.05112e-05
3.76612e-07
-1.09221e-05
4.10915e-07
-1.13894e-05
4.67314e-07
-1.19267e-05
5.37251e-07
-1.25313e-05
6.04615e-07
-1.31788e-05
6.47484e-07
-1.38222e-05
6.43448e-07
-1.44004e-05
5.78198e-07
-1.48519e-05
4.51432e-07
-1.51292e-05
2.77376e-07
-1.5211e-05
8.17145e-08
-1.51097e-05
-1.01295e-07
-1.48618e-05
-2.47904e-07
-1.44966e-05
-3.65193e-07
-1.40361e-05
-4.60425e-07
-1.3507e-05
-5.29141e-07
-1.2929e-05
-5.78016e-07
-1.23158e-05
-6.13176e-07
-1.16797e-05
-6.36099e-07
-1.10287e-05
-6.51051e-07
-1.03679e-05
-6.60709e-07
-9.70216e-06
-6.65788e-07
-9.03461e-06
-6.6755e-07
-8.36812e-06
-6.66487e-07
-7.70567e-06
-6.62459e-07
-7.05016e-06
-6.55503e-07
-6.40465e-06
-6.45513e-07
-5.77229e-06
-6.32356e-07
-5.15627e-06
-6.16026e-07
-4.55966e-06
-5.96603e-07
-3.98535e-06
-5.74309e-07
-3.43589e-06
-5.49469e-07
-2.91335e-06
-5.22532e-07
-2.41925e-06
-4.94106e-07
-1.95432e-06
-4.64927e-07
-1.5185e-06
-4.3582e-07
-1.11081e-06
-4.07688e-07
-7.29336e-07
-3.81477e-07
-3.7129e-07
-3.58047e-07
-3.32866e-08
-3.38003e-07
2.88637e-07
-3.21924e-07
5.98741e-07
-3.10104e-07
9.00666e-07
-3.01925e-07
1.19683e-06
-2.96159e-07
1.4881e-06
-2.91273e-07
1.77363e-06
-2.8553e-07
2.05096e-06
-2.77332e-07
2.31658e-06
-2.65616e-07
2.56646e-06
-2.4988e-07
2.796e-06
-2.29545e-07
2.99999e-06
-2.03985e-07
3.17466e-06
-1.74676e-07
3.32016e-06
-1.45497e-07
3.4376e-06
-1.17446e-07
3.52731e-06
-8.97049e-08
3.59661e-06
-6.9305e-08
3.65354e-06
-5.69279e-08
3.68268e-06
-2.91348e-08
3.67626e-06
6.4154e-09
3.68388e-06
-7.61611e-09
3.72158e-06
-3.76998e-08
3.70774e-06
1.38405e-08
3.659e-06
4.87366e-08
3.69784e-06
-3.88431e-08
3.66813e-06
2.97141e-08
3.23196e-06
4.36173e-07
2.45095e-06
7.81007e-07
1.6664e-06
7.84546e-07
1.13697e-06
5.29431e-07
9.79191e-07
1.57783e-07
1.0922e-06
-1.13009e-07
1.25324e-06
-1.6104e-07
1.32216e-06
-6.89158e-08
1.29136e-06
3.07989e-08
1.22737e-06
6.39849e-08
1.20254e-06
2.48369e-08
1.26757e-06
-6.50304e-08
1.39256e-06
-1.24991e-07
1.43041e-06
-3.78504e-08
1.31755e-06
1.12854e-07
1.19243e-06
1.25128e-07
1.26418e-06
-7.17517e-08
1.6282e-06
-3.64023e-07
2.01751e-06
-3.89307e-07
1.8661e-06
1.51408e-07
5.96472e-07
1.26963e-06
-1.32292e-06
1.91939e-06
-3.03723e-06
1.71431e-06
-4.39762e-06
1.36038e-06
-5.48198e-06
1.08436e-06
-6.33899e-06
8.5701e-07
-6.96607e-06
6.27078e-07
-7.35573e-06
3.89661e-07
-7.49993e-06
1.44202e-07
-7.4053e-06
-9.46262e-08
-7.0887e-06
-3.16599e-07
-6.56814e-06
-5.20563e-07
-5.86689e-06
-7.01254e-07
-5.01287e-06
-8.54016e-07
-4.04144e-06
-9.7143e-07
-2.9927e-06
-1.04874e-06
-1.90729e-06
-1.08541e-06
-8.18749e-07
-1.08855e-06
2.23244e-07
-1.04199e-06
1.21887e-06
-9.95624e-07
2.09938e-06
-8.80508e-07
2.89157e-06
-7.92193e-07
-5.06255e-07
3.39782e-06
-6.80813e-09
2.58478e-07
-4.55535e-08
2.31667e-07
-2.54982e-08
1.27437e-07
6.98277e-08
1.09448e-08
2.76531e-07
-1.39962e-07
6.10122e-07
-3.4768e-07
1.05617e-06
-5.80115e-07
1.58014e-06
-7.9316e-07
2.14535e-06
-9.61227e-07
2.72108e-06
-1.07594e-06
3.29003e-06
-1.1368e-06
3.84005e-06
-1.14978e-06
4.36075e-06
-1.12363e-06
4.84419e-06
-1.06695e-06
5.28452e-06
-9.86889e-07
5.67717e-06
-8.88151e-07
6.01755e-06
-7.7334e-07
6.30057e-06
-6.44081e-07
6.52046e-06
-5.01511e-07
6.67183e-06
-3.47103e-07
6.74954e-06
-1.82327e-07
6.75248e-06
-1.12351e-08
6.68435e-06
1.61332e-07
6.54695e-06
3.34618e-07
6.34257e-06
5.05739e-07
6.07525e-06
6.70665e-07
5.75065e-06
8.27522e-07
5.37398e-06
9.71295e-07
4.95748e-06
1.10042e-06
4.50121e-06
1.20649e-06
3.97117e-06
1.26922e-06
3.32209e-06
1.27333e-06
2.63111e-06
1.21317e-06
1.95338e-06
1.05412e-06
1.32524e-06
7.99712e-07
8.38404e-07
5.77779e-07
4.82928e-07
3.80052e-07
2.92997e-07
9.79329e-08
2.59852e-07
-1.46559e-07
3.84307e-07
-3.6448e-07
6.63425e-07
-5.89807e-07
1.0913e-06
-9.07483e-07
1.53098e-06
-1.01548e-06
2.16631e-06
-1.14644e-06
2.83652e-06
-1.17234e-06
3.39367e-06
-1.10864e-06
3.85774e-06
-9.03024e-07
4.01322e-06
-2.91016e-07
3.86364e-06
2.03645e-07
3.59535e-06
4.60915e-07
3.2847e-06
8.57985e-07
2.93599e-06
1.08861e-06
2.09063e-06
1.13571e-06
5.0537e-07
1.60016e-06
-1.46328e-06
2.06584e-06
-2.90754e-06
2.10828e-06
-3.85966e-06
2.07604e-06
-4.69701e-06
1.9348e-06
-5.45514e-06
1.77503e-06
-6.15344e-06
1.61264e-06
-6.79113e-06
1.46909e-06
-7.38698e-06
1.34728e-06
-7.93987e-06
1.24521e-06
-8.45596e-06
1.15592e-06
-8.93381e-06
1.0762e-06
-9.37729e-06
1.00078e-06
-9.78761e-06
9.29231e-07
-1.01701e-05
8.6046e-07
-1.05315e-05
8.00115e-07
-1.08827e-05
7.53906e-07
-1.12364e-05
7.30396e-07
-1.16056e-05
7.35199e-07
-1.20005e-05
7.7153e-07
-1.24266e-05
8.36972e-07
-1.2883e-05
9.23731e-07
-1.33624e-05
1.01661e-06
-1.38505e-05
1.09271e-06
-1.43248e-05
1.1218e-06
-1.47529e-05
1.07162e-06
-1.50946e-05
9.19913e-07
-1.53126e-05
6.69381e-07
-1.53893e-05
3.54048e-07
-1.53325e-05
2.49172e-08
-1.51541e-05
-2.79671e-07
-1.48542e-05
-5.47822e-07
-1.44455e-05
-7.73829e-07
-1.3956e-05
-9.49943e-07
-1.34069e-05
-1.07824e-06
-1.28172e-05
-1.16778e-06
-1.22016e-05
-1.22878e-06
-1.15674e-05
-1.27023e-06
-1.09207e-05
-1.29775e-06
-1.02664e-05
-1.31508e-06
-9.60684e-06
-1.32531e-06
-8.94461e-06
-1.32978e-06
-8.28243e-06
-1.32867e-06
-7.62295e-06
-1.32194e-06
-6.96919e-06
-1.30927e-06
-6.32443e-06
-1.29027e-06
-5.69208e-06
-1.26471e-06
-5.0756e-06
-1.2325e-06
-4.47839e-06
-1.19381e-06
-3.90359e-06
-1.14911e-06
-3.35395e-06
-1.09912e-06
-2.83166e-06
-1.04482e-06
-2.3382e-06
-9.87561e-07
-1.87417e-06
-9.28958e-07
-1.43919e-06
-8.70798e-07
-1.03192e-06
-8.14961e-07
-6.50075e-07
-7.63322e-07
-2.90531e-07
-7.1759e-07
5.0709e-08
-6.79244e-07
3.78047e-07
-6.49262e-07
6.95672e-07
-6.27729e-07
1.00732e-06
-6.13572e-07
1.31584e-06
-6.04678e-07
1.62271e-06
-5.98143e-07
1.92779e-06
-5.90609e-07
2.2292e-06
-5.78748e-07
2.52335e-06
-5.59757e-07
2.8052e-06
-5.31736e-07
3.06967e-06
-4.94017e-07
3.31294e-06
-4.47255e-07
3.53123e-06
-3.92963e-07
3.71915e-06
-3.33416e-07
3.87375e-06
-2.72044e-07
3.99641e-06
-2.12369e-07
4.08535e-06
-1.58242e-07
4.14311e-06
-1.14683e-07
4.1908e-06
-7.68251e-08
4.22706e-06
-2.98486e-08
4.20947e-06
9.97065e-09
4.15977e-06
1.19993e-08
4.15155e-06
2.20699e-08
4.13671e-06
6.35764e-08
4.06549e-06
3.23738e-08
4.08934e-06
5.85936e-09
4.27121e-06
2.54306e-07
4.39169e-06
6.60527e-07
4.31573e-06
8.60508e-07
4.15093e-06
6.94229e-07
3.9923e-06
3.16408e-07
3.82573e-06
5.3567e-08
3.61574e-06
4.89521e-08
3.34891e-06
1.97909e-07
3.05176e-06
3.2795e-07
2.76999e-06
3.45757e-07
2.53149e-06
2.63334e-07
2.36715e-06
9.93107e-08
2.33618e-06
-9.40225e-08
2.41729e-06
-1.18961e-07
2.41943e-06
1.10716e-07
2.30602e-06
2.38535e-07
2.40816e-06
-1.7389e-07
2.69776e-06
-6.53625e-07
2.45448e-06
-1.4602e-07
1.10621e-06
1.49967e-06
-9.41801e-07
3.31764e-06
-2.61076e-06
3.58835e-06
-3.81954e-06
2.92309e-06
-4.84124e-06
2.38208e-06
-5.70086e-06
1.94399e-06
-6.39499e-06
1.55114e-06
-6.89902e-06
1.1311e-06
-7.20103e-06
6.91677e-07
-7.29397e-06
2.37136e-07
-7.16668e-06
-2.21908e-07
-6.81886e-06
-6.64428e-07
-6.2672e-06
-1.07221e-06
-5.53634e-06
-1.43211e-06
-4.65571e-06
-1.73465e-06
-3.65932e-06
-1.96782e-06
-2.5877e-06
-2.12036e-06
-1.49552e-06
-2.17758e-06
-3.99716e-07
-2.18435e-06
6.36068e-07
-2.07778e-06
1.64186e-06
-2.00142e-06
2.51863e-06
-1.75728e-06
3.30852e-06
-1.58208e-06
-1.17385e-06
3.97611e-06
1.33267e-07
1.25211e-07
1.76438e-07
1.88496e-07
2.63262e-07
4.06131e-08
5.48073e-07
-2.73866e-07
1.04844e-06
-6.40325e-07
1.6766e-06
-9.75843e-07
2.3339e-06
-1.23742e-06
2.95806e-06
-1.41732e-06
3.52009e-06
-1.52326e-06
4.01157e-06
-1.56742e-06
4.43698e-06
-1.56221e-06
4.80699e-06
-1.51979e-06
5.13384e-06
-1.45048e-06
5.42836e-06
-1.36147e-06
5.69797e-06
-1.2565e-06
5.94624e-06
-1.13641e-06
6.17316e-06
-1.00026e-06
6.37581e-06
-8.46738e-07
6.54952e-06
-6.75221e-07
6.68822e-06
-4.85803e-07
6.78582e-06
-2.7992e-07
6.83487e-06
-6.02832e-08
6.82844e-06
1.67761e-07
6.76434e-06
3.98712e-07
6.64491e-06
6.25172e-07
6.47542e-06
8.40154e-07
6.26476e-06
1.03818e-06
6.02184e-06
1.21422e-06
5.75622e-06
1.36604e-06
5.46797e-06
1.49474e-06
5.14288e-06
1.59431e-06
4.76206e-06
1.65415e-06
4.31992e-06
1.65531e-06
3.79662e-06
1.57742e-06
3.19669e-06
1.39964e-06
2.63985e-06
1.13462e-06
2.21797e-06
8.01941e-07
1.86734e-06
4.48554e-07
1.59643e-06
1.24358e-07
1.44942e-06
-2.17469e-07
1.47589e-06
-6.16281e-07
1.59616e-06
-1.02776e-06
1.99519e-06
-1.41451e-06
2.61428e-06
-1.76553e-06
3.18737e-06
-1.74543e-06
3.3996e-06
-1.32088e-06
3.42982e-06
-9.3324e-07
3.32986e-06
-1.91061e-07
3.03595e-06
4.97552e-07
2.45869e-06
1.03818e-06
1.56753e-06
1.74914e-06
2.84208e-07
2.37194e-06
-1.38121e-06
2.80112e-06
-2.82897e-06
3.04792e-06
-3.80906e-06
3.04593e-06
-4.55459e-06
2.85381e-06
-5.12272e-06
2.64417e-06
-5.62045e-06
2.43253e-06
-6.0878e-06
2.24239e-06
-6.55285e-06
2.07769e-06
-7.01545e-06
1.93169e-06
-7.47555e-06
1.80737e-06
-7.92415e-06
1.69382e-06
-8.35718e-06
1.58894e-06
-8.76694e-06
1.48596e-06
-9.14944e-06
1.38329e-06
-9.50167e-06
1.28145e-06
-9.82689e-06
1.18568e-06
-1.0132e-05
1.10526e-06
-1.04283e-05
1.0502e-06
-1.07286e-05
1.03069e-06
-1.10463e-05
1.05293e-06
-1.13937e-05
1.11892e-06
-1.1781e-05
1.22429e-06
-1.22155e-05
1.35823e-06
-1.26991e-05
1.50013e-06
-1.32223e-05
1.61595e-06
-1.37562e-05
1.65565e-06
-1.42476e-05
1.56301e-06
-1.46299e-05
1.30225e-06
-1.48491e-05
8.88624e-07
-1.48863e-05
3.91222e-07
-1.47554e-05
-1.06025e-07
-1.4485e-05
-5.50065e-07
-1.41081e-05
-9.24683e-07
-1.36539e-05
-1.228e-06
-1.31442e-05
-1.45966e-06
-1.25985e-05
-1.62399e-06
-1.20319e-05
-1.73435e-06
-1.14521e-05
-1.80854e-06
-1.0863e-05
-1.85942e-06
-1.02667e-05
-1.894e-06
-9.66407e-06
-1.91771e-06
-9.05531e-06
-1.93407e-06
-8.44125e-06
-1.94384e-06
-7.82331e-06
-1.94661e-06
-7.20362e-06
-1.94163e-06
-6.58488e-06
-1.92801e-06
-5.97029e-06
-1.90485e-06
-5.36344e-06
-1.87156e-06
-4.76814e-06
-1.8278e-06
-4.18841e-06
-1.77354e-06
-3.62826e-06
-1.70926e-06
-3.09155e-06
-1.63582e-06
-2.58189e-06
-1.55449e-06
-2.10233e-06
-1.46712e-06
-1.65493e-06
-1.37635e-06
-1.24031e-06
-1.28542e-06
-8.57215e-07
-1.19805e-06
-5.02543e-07
-1.11799e-06
-1.71653e-07
-1.04848e-06
1.41045e-07
-9.91941e-07
4.41352e-07
-9.4957e-07
7.34646e-07
-9.21023e-07
1.02544e-06
-9.04363e-07
1.31682e-06
-8.96061e-07
1.61008e-06
-8.91402e-07
1.90465e-06
-8.85184e-07
2.1985e-06
-8.72596e-07
2.4887e-06
-8.49959e-07
2.77201e-06
-8.15039e-07
3.045e-06
-7.6701e-07
3.30405e-06
-7.06306e-07
3.54511e-06
-6.34025e-07
3.7628e-06
-5.5111e-07
3.95069e-06
-4.59926e-07
4.10549e-06
-3.67174e-07
4.22806e-06
-2.80815e-07
4.31665e-06
-2.03273e-07
4.3706e-06
-1.30773e-07
4.39904e-06
-5.82833e-08
4.40381e-06
5.20097e-09
4.38164e-06
3.41641e-08
4.36268e-06
4.10289e-08
4.35398e-06
7.22792e-08
4.29205e-06
9.42995e-08
4.22741e-06
7.05036e-08
4.34715e-06
1.34568e-07
4.6366e-06
3.7107e-07
4.90399e-06
5.93122e-07
5.02444e-06
5.73779e-07
4.97331e-06
3.67536e-07
4.82668e-06
2.00199e-07
4.70568e-06
1.69957e-07
4.64455e-06
2.59033e-07
4.55405e-06
4.18455e-07
4.33035e-06
5.69458e-07
3.97299e-06
6.20688e-07
3.59177e-06
4.80534e-07
3.3278e-06
1.69944e-07
3.21192e-06
-3.07515e-09
3.08223e-06
2.404e-07
2.93457e-06
3.86195e-07
2.94169e-06
-1.81004e-07
2.80218e-06
-5.14116e-07
1.94177e-06
7.14385e-07
2.37423e-07
3.20402e-06
-1.47805e-06
5.03312e-06
-2.57154e-06
4.68184e-06
-3.52069e-06
3.87224e-06
-4.49198e-06
3.35337e-06
-5.38315e-06
2.83516e-06
-6.11582e-06
2.28381e-06
-6.64727e-06
1.66255e-06
-6.95446e-06
9.98866e-07
-7.03064e-06
3.13312e-07
-6.87432e-06
-3.78226e-07
-6.4975e-06
-1.04125e-06
-5.92074e-06
-1.64897e-06
-5.1707e-06
-2.18216e-06
-4.27746e-06
-2.62789e-06
-3.27168e-06
-2.97359e-06
-2.19103e-06
-3.20102e-06
-1.11179e-06
-3.25682e-06
-4.22987e-08
-3.25385e-06
9.62873e-07
-3.08295e-06
1.93016e-06
-2.9687e-06
2.80334e-06
-2.63046e-06
3.57181e-06
-2.35055e-06
-1.85103e-06
4.24899e-06
1.72457e-08
1.07965e-07
9.7256e-08
1.08485e-07
5.32797e-07
-3.94928e-07
1.23835e-06
-9.7942e-07
1.99946e-06
-1.40144e-06
2.67411e-06
-1.65049e-06
3.20817e-06
-1.77148e-06
3.59872e-06
-1.80786e-06
3.86796e-06
-1.79251e-06
4.04846e-06
-1.74791e-06
4.17479e-06
-1.68854e-06
4.27795e-06
-1.62295e-06
4.38155e-06
-1.55408e-06
4.4997e-06
-1.47961e-06
4.63703e-06
-1.39383e-06
4.79072e-06
-1.29011e-06
4.9536e-06
-1.16314e-06
5.11695e-06
-1.01009e-06
5.27257e-06
-8.30838e-07
5.41371e-06
-6.26944e-07
5.53527e-06
-4.01474e-07
5.63347e-06
-1.58486e-07
5.70343e-06
9.77951e-08
5.74056e-06
3.61584e-07
5.7416e-06
6.24129e-07
5.70622e-06
8.75534e-07
5.63742e-06
1.10698e-06
5.53932e-06
1.31232e-06
5.41726e-06
1.48811e-06
5.27549e-06
1.6365e-06
5.11423e-06
1.75557e-06
4.92526e-06
1.84312e-06
4.6896e-06
1.89096e-06
4.38217e-06
1.88485e-06
3.9923e-06
1.78951e-06
3.54579e-06
1.58112e-06
3.09674e-06
1.25099e-06
2.6845e-06
8.608e-07
2.39976e-06
4.09089e-07
2.16438e-06
1.79123e-08
2.04543e-06
-4.97329e-07
1.94883e-06
-9.31158e-07
2.18423e-06
-1.64991e-06
2.29291e-06
-1.8742e-06
2.19745e-06
-1.64997e-06
1.92963e-06
-1.05306e-06
1.3375e-06
-3.41102e-07
6.32919e-07
5.13516e-07
-2.82886e-07
1.41336e-06
-1.36526e-06
2.12056e-06
-2.40119e-06
2.78506e-06
-3.31163e-06
3.28238e-06
-4.04884e-06
3.53834e-06
-4.52695e-06
3.52602e-06
-4.83728e-06
3.35627e-06
-5.13703e-06
3.15356e-06
-5.44977e-06
2.9569e-06
-5.78837e-06
2.77113e-06
-6.15284e-06
2.60685e-06
-6.53594e-06
2.46079e-06
-6.93054e-06
2.32629e-06
-7.32717e-06
2.20401e-06
-7.71763e-06
2.08427e-06
-8.09338e-06
1.96469e-06
-8.4466e-06
1.83919e-06
-8.77273e-06
1.70942e-06
-9.07084e-06
1.57956e-06
-9.34503e-06
1.45987e-06
-9.60246e-06
1.3627e-06
-9.85362e-06
1.30135e-06
-1.01115e-05
1.28859e-06
-1.0392e-05
1.33341e-06
-1.07125e-05
1.43945e-06
-1.10898e-05
1.60156e-06
-1.15343e-05
1.80269e-06
-1.20417e-05
2.00754e-06
-1.25829e-05
2.15721e-06
-1.30995e-05
2.17224e-06
-1.35149e-05
1.97835e-06
-1.37631e-05
1.55051e-06
-1.38178e-05
9.43267e-07
-1.36958e-05
2.69207e-07
-1.34361e-05
-3.65736e-07
-1.30759e-05
-9.10236e-07
-1.26431e-05
-1.35744e-06
-1.21614e-05
-1.70975e-06
-1.1654e-05
-1.96699e-06
-1.11386e-05
-2.13941e-06
-1.06227e-05
-2.25026e-06
-1.01082e-05
-2.32305e-06
-9.5947e-06
-2.37291e-06
-9.07991e-06
-2.40879e-06
-8.56113e-06
-2.43649e-06
-8.0367e-06
-2.4585e-06
-7.50618e-06
-2.47436e-06
-6.97026e-06
-2.48253e-06
-6.43041e-06
-2.48148e-06
-5.88856e-06
-2.46986e-06
-5.34691e-06
-2.44651e-06
-4.80777e-06
-2.4107e-06
-4.27356e-06
-2.362e-06
-3.74694e-06
-2.30016e-06
-3.23087e-06
-2.22533e-06
-2.72838e-06
-2.13831e-06
-2.24276e-06
-2.04011e-06
-1.7778e-06
-1.93207e-06
-1.33798e-06
-1.81618e-06
-9.28044e-07
-1.69536e-06
-5.51942e-07
-1.57415e-06
-2.11076e-07
-1.45886e-06
9.69253e-08
-1.35648e-06
3.78104e-07
-1.27312e-06
6.40944e-07
-1.21241e-06
8.94726e-07
-1.1748e-06
1.1479e-06
-1.15754e-06
1.4067e-06
-1.15486e-06
1.67406e-06
-1.15876e-06
1.9492e-06
-1.16032e-06
2.22812e-06
-1.15151e-06
2.5051e-06
-1.12694e-06
2.77476e-06
-1.0847e-06
3.03359e-06
-1.02583e-06
3.28003e-06
-9.52752e-07
3.51341e-06
-8.67406e-07
3.73235e-06
-7.70043e-07
3.93381e-06
-6.61388e-07
4.11447e-06
-5.47831e-07
4.27318e-06