/*--------------------------------*- C++ -*----------------------------------*\
  =========                 |
  \\      /  F ield         | OpenFOAM: The Open Source CFD Toolbox
   \\    /   O peration     | Website:  https://openfoam.org
    \\  /    A nd           | Version:  6
     \\/     M anipulation  |
\*---------------------------------------------------------------------------*/
FoamFile
{
    version     2.0;
    format      ascii;
    class       volScalarField;
    location    "0.25";
    object      pMean;
}
// * * * * * * * * * * * * * * * * * * * * * * * * * * * * * * * * * * * * * //

dimensions      [0 2 -2 0 0 0 0];

internalField   nonuniform List<scalar> 
12225
(
2.35214
1.79849
1.41464
1.21729
1.11209
1.03031
0.949474
0.870988
0.800845
0.742413
0.696378
0.66235
0.640065
0.628154
0.624225
0.615421
0.58178
0.448924
2.21744
1.7603
1.39865
1.20246
1.09694
1.01642
0.937107
0.859577
0.789702
0.731127
0.684423
0.649374
0.6249
0.610212
0.600649
0.587218
0.546387
0.447059
2.08684
1.72817
1.39858
1.20103
1.09129
1.01021
0.931755
0.854448
0.783912
0.723891
0.675255
0.63715
0.608526
0.586957
0.568411
0.542564
0.494166
0.401084
1.97236
1.69351
1.39828
1.19909
1.08275
0.999831
0.922048
0.845063
0.773708
0.711974
0.660833
0.619202
0.585398
0.556354
0.527544
0.489731
0.431632
0.335839
1.86844
1.65103
1.39038
1.19315
1.07078
0.985751
0.908932
0.832846
0.761078
0.697727
0.643969
0.598605
0.559415
0.523037
0.484674
0.436842
0.370161
0.274108
1.76979
1.60067
1.37405
1.18406
1.05799
0.970804
0.894758
0.819741
0.747729
0.682685
0.626031
0.576577
0.531819
0.488269
0.44138
0.385098
0.312391
0.217475
1.67644
1.54481
1.34968
1.17117
1.04393
0.954368
0.878324
0.804079
0.731791
0.664947
0.605152
0.55138
0.501048
0.450759
0.396395
0.333242
0.256368
0.162428
1.5978
1.48925
1.32101
1.1562
1.02993
0.937812
0.860726
0.786613
0.713868
0.645136
0.582051
0.523831
0.468035
0.411486
0.350626
0.281826
0.201664
0.107799
1.52801
1.43385
1.28814
1.13788
1.01473
0.920633
0.84196
0.767488
0.694201
0.623686
0.557412
0.494877
0.433935
0.371765
0.305355
0.231916
0.148888
0.0544667
1.45296
1.37475
1.24822
1.11238
0.994251
0.899369
0.819116
0.743971
0.670086
0.59797
0.528767
0.462213
0.39656
0.329409
0.25826
0.180934
0.0955365
0.000861306
1.3866
1.31861
1.20781
1.08517
0.973045
0.87846
0.796723
0.720436
0.645569
0.571744
0.499687
0.4293
0.359253
0.287602
0.212295
0.131634
0.0441861
-0.0507731
1.32832
1.26798
1.16898
1.05703
0.950795
0.857387
0.774621
0.697089
0.621097
0.54574
0.471335
0.397828
0.324219
0.248972
0.170409
0.0872209
-0.00170418
-0.0967899
1.26854
1.21706
1.12799
1.0254
0.92501
0.833395
0.75003
0.671259
0.594002
0.517096
0.440523
0.364221
0.287473
0.209114
0.127836
0.042635
-0.047265
-0.142092
1.2124
1.16436
1.08394
0.99026
0.895882
0.806517
0.722771
0.642583
0.563703
0.484961
0.406077
0.326938
0.247057
0.165636
0.0817336
-0.00534361
-0.0961605
-0.190781
1.15003
1.10625
1.03358
0.947827
0.859099
0.772307
0.688631
0.607181
0.526563
0.445834
0.364624
0.282791
0.200042
0.115895
0.0297639
-0.058789
-0.150079
-0.244122
1.07926
1.0427
0.97742
0.898668
0.815236
0.731238
0.648049
0.565613
0.483339
0.400664
0.317281
0.23307
0.147888
0.0615184
-0.0263302
-0.115855
-0.207201
-0.300267
1.01533
0.982253
0.92175
0.847874
0.768392
0.6866
0.603753
0.520295
0.436271
0.351554
0.266024
0.179654
0.0924218
0.00430954
-0.0847627
-0.174801
-0.265844
-0.357731
0.968839
0.933622
0.873896
0.801699
0.723494
0.641994
0.558401
0.473442
0.387521
0.300783
0.213274
0.12507
0.0362677
-0.0530179
-0.142715
-0.232729
-0.323003
-0.413389
0.936858
0.899277
0.837372
0.763681
0.684095
0.601044
0.515752
0.428955
0.341084
0.252395
0.163092
0.0733948
-0.0164864
-0.106355
-0.196068
-0.285496
-0.374541
-0.463041
0.930603
0.892191
0.826767
0.748251
0.663873
0.576976
0.488989
0.400257
0.310734
0.220489
0.129806
0.0390501
-0.0514727
-0.14155
-0.231044
-0.319852
-0.407871
-0.494984
0.948199
0.907423
0.835949
0.750002
0.659132
0.56775
0.477072
0.386581
0.295513
0.203729
0.111661
0.0198672
-0.0712628
-0.161546
-0.250906
-0.339289
-0.426612
-0.512779
0.98842
0.940185
0.858517
0.762005
0.662973
0.566788
0.47364
0.381491
0.288754
0.195274
0.101777
0.00901743
-0.0826261
-0.17307
-0.262338
-0.35041
-0.437234
-0.522689
1.0411
0.983584
0.887514
0.776995
0.668826
0.568668
0.474125
0.380852
0.286566
0.191453
0.0966843
0.003155
-0.0888541
-0.179403
-0.268598
-0.356432
-0.442844
-0.527716
1.1037
1.034
0.919314
0.792431
0.675631
0.572929
0.4777
0.383259
0.287268
0.190603
0.0948273
0.00079716
-0.0914035
-0.181991
-0.271118
-0.358783
-0.444887
-0.52933
1.17601
1.08821
0.949772
0.80575
0.682497
0.578972
0.483256
0.387162
0.289161
0.191013
0.0944698
0.000147705
-0.0921312
-0.182707
-0.271754
-0.359261
-0.445124
-0.529203
1.25529
1.14094
0.973134
0.814233
0.688779
0.586312
0.489988
0.391775
0.291684
0.192244
0.0951094
0.000548999
-0.0918399
-0.182449
-0.271431
-0.358765
-0.444379
-0.528216
1.348
1.18962
0.986249
0.81712
0.694243
0.594329
0.497329
0.39698
0.295096
0.194678
0.0970809
0.00222538
-0.0904362
-0.181275
-0.270396
-0.357746
-0.443269
-0.526895
1.46193
1.2337
0.990274
0.81549
0.697785
0.600853
0.50351
0.401877
0.299241
0.198733
0.101327
0.00666439
-0.0858735
-0.1766
-0.265554
-0.352616
-0.437824
-0.521608
1.58732
1.27169
0.989855
0.811097
0.696751
0.600862
0.502453
0.399562
0.296297
0.195685
0.0983626
0.00379461
-0.0886928
-0.179339
-0.268208
-0.355022
-0.439694
-0.521696
1.71829
1.31351
1.00678
0.824796
0.710602
0.613733
0.513597
0.409167
0.304864
0.203593
0.105787
0.0108151
-0.0820459
-0.172986
-0.262125
-0.349061
-0.433978
-0.516131
-3.13827
-3.1647
-3.19591
-3.21346
-3.20955
-3.19167
-3.18442
-3.2165
-3.30886
-3.46908
-3.69128
-3.95891
-4.2491
-4.53834
-4.80684
-5.03986
-5.22752
-5.36442
-5.4494
-5.48513
-5.47774
-5.43598
-5.36997
-5.28998
-5.20671
-5.13136
-5.07399
-5.04217
-5.03139
-5.03234
-5.04619
-5.08195
-5.15361
-5.26267
-5.39517
-5.5434
-5.71313
-5.91207
-6.14801
-6.42915
-6.75871
-7.13143
-7.52691
-7.91327
-8.26853
-8.59471
-8.89947
-9.16714
-9.37297
-9.54642
-9.73261
-9.93966
-10.1414
-10.314
-10.4642
-10.6193
-10.8012
-11.0183
-11.2532
-11.4909
-11.7395
-12.0116
-12.3027
-12.5951
-12.8665
-13.0906
-13.2482
-13.3291
-13.3314
-13.258
-13.1044
-12.8642
-12.5636
-12.2577
-11.9815
-11.7384
-11.5215
-11.3389
-11.1946
-11.0811
-10.9748
-10.8448
-10.6679
-10.4554
-10.2483
-10.043
-9.81605
-9.55782
-9.25955
-8.90629
-8.49182
-8.03155
-7.53871
-7.0419
-6.61212
-6.26006
-5.92506
-5.55111
-5.11007
-4.59552
-4.00611
-3.32992
-2.56341
-1.72166
-0.824703
0.113568
1.01542
1.7956
2.45559
3.01209
3.47213
3.85291
4.17945
4.47904
4.77545
5.08878
5.43501
5.82379
6.25521
6.71852
7.19157
7.65934
8.11864
8.51197
8.76879
8.92205
9.03178
9.12329
9.2163
9.35398
9.58254
9.89792
10.2825
10.6562
10.8335
10.7571
10.5576
10.2859
9.94663
9.65328
9.50431
9.52099
9.70326
10.0261
10.431
10.8761
11.3783
11.9744
12.6721
13.447
14.2598
15.0777
15.8774
16.6377
17.3149
17.8283
18.1112
18.1861
18.1484
18.0752
18.001
17.9367
17.8872
17.8644
17.893
17.9924
18.1606
18.3824
18.6346
18.8866
19.0968
19.2212
19.2358
19.15
18.9992
18.8268
18.6771
18.5741
18.5497
18.5772
-3.27731
-3.31207
-3.36141
-3.40626
-3.4384
-3.46783
-3.51605
-3.60472
-3.74686
-3.94331
-4.18439
-4.45396
-4.73337
-5.00473
-5.2529
-5.4656
-5.63371
-5.7525
-5.82136
-5.84303
-5.8227
-5.76877
-5.69192
-5.60361
-5.51497
-5.43568
-5.37091
-5.32918
-5.31326
-5.3146
-5.3468
-5.42204
-5.53477
-5.68406
-5.85659
-6.03578
-6.23342
-6.45631
-6.70514
-6.99129
-7.31294
-7.66027
-8.0231
-8.38888
-8.74204
-9.07304
-9.39043
-9.68858
-9.94546
-10.1668
-10.3796
-10.5852
-10.7749
-10.9435
-11.1019
-11.2661
-11.4476
-11.655
-11.8825
-12.1135
-12.3515
-12.6116
-12.8841
-13.1534
-13.3994
-13.5982
-13.7309
-13.7878
-13.7684
-13.674
-13.5096
-13.2768
-13.0015
-12.73
-12.4913
-12.2847
-12.0886
-11.9171
-11.7786
-11.6591
-11.5367
-11.3965
-11.2277
-11.0221
-10.8095
-10.5802
-10.3181
-10.0159
-9.67445
-9.29794
-8.88615
-8.44442
-7.9998
-7.57907
-7.21421
-6.88528
-6.53601
-6.12996
-5.65057
-5.09679
-4.46593
-3.75011
-2.9525
-2.08848
-1.18285
-0.266305
0.587151
1.32489
1.96992
2.52996
3.00761
3.4156
3.77438
4.10591
4.43142
4.77074
5.1405
5.55056
6.00121
6.48133
6.97318
7.44283
7.87355
8.23308
8.47988
8.64912
8.77961
8.89018
8.99852
9.14878
9.38715
9.71022
10.0603
10.3282
10.4014
10.2948
10.0986
9.83215
9.52977
9.29927
9.20409
9.25896
9.46045
9.77782
10.1595
10.5877
11.092
11.6987
12.4075
13.1934
14.0187
14.8506
15.6645
16.4312
17.0933
17.5725
17.832
17.9172
17.9107
17.8681
17.8151
17.7618
17.717
17.6999
17.7383
17.8475
18.0231
18.2505
18.5075
18.7622
18.9724
19.0945
19.1081
19.0222
18.8708
18.693
18.5326
18.4026
18.3365
18.2857
-3.37869
-3.41434
-3.48608
-3.58527
-3.70392
-3.84289
-4.00843
-4.20583
-4.43537
-4.69138
-4.9628
-5.23682
-5.50204
-5.74862
-5.96778
-6.15158
-6.29357
-6.3905
-6.44138
-6.44725
-6.41198
-6.34277
-6.24962
-6.14336
-6.03537
-5.93677
-5.8544
-5.79438
-5.76704
-5.77801
-5.83591
-5.94662
-6.09849
-6.285
-6.49855
-6.72471
-6.96438
-7.22291
-7.49993
-7.79755
-8.11193
-8.43652
-8.76894
-9.11138
-9.46788
-9.83053
-10.1862
-10.5246
-10.84
-11.1225
-11.3739
-11.5932
-11.7799
-11.9513
-12.1208
-12.2965
-12.4822
-12.6763
-12.8847
-13.1024
-13.3271
-13.5642
-13.8061
-14.0391
-14.2433
-14.3989
-14.4905
-14.5118
-14.4654
-14.3595
-14.204
-14.0095
-13.7974
-13.5861
-13.3819
-13.1901
-13.0093
-12.8517
-12.7135
-12.5763
-12.435
-12.2864
-12.1229
-11.9276
-11.6998
-11.4334
-11.126
-10.7781
-10.3968
-9.99983
-9.59963
-9.20917
-8.85333
-8.53857
-8.24252
-7.92417
-7.54703
-7.09306
-6.55829
-5.94538
-5.25274
-4.47892
-3.63764
-2.75159
-1.85093
-0.981375
-0.184642
0.528999
1.17141
1.74476
2.25433
2.70763
3.11699
3.49689
3.8655
4.24324
4.64837
5.09032
5.56817
6.07008
6.56672
7.02106
7.41562
7.74184
7.9957
8.19476
8.35406
8.4867
8.61375
8.78523
9.03916
9.34321
9.59409
9.69832
9.65832
9.52936
9.32987
9.07982
8.84753
8.69964
8.668
8.7683
8.99089
9.29839
9.65414
10.0723
10.5841
11.2028
11.9241
12.7255
13.5717
14.4267
15.2594
16.0282
16.662
17.0972
17.3403
17.4513
17.489
17.4868
17.4623
17.4268
17.3958
17.396
17.4547
17.5817
17.7716
18.0108
18.2763
18.5335
18.7401
18.8582
18.8724
18.789
18.6374
18.4507
18.2698
18.1043
17.985
17.8518
-3.46113
-3.51069
-3.63047
-3.81777
-4.05486
-4.32237
-4.60685
-4.89998
-5.1963
-5.49114
-5.77899
-6.05326
-6.30709
-6.53455
-6.7311
-6.89248
-7.01458
-7.09486
-7.13215
-7.12662
-7.08164
-7.00397
-6.90286
-6.78967
-6.67451
-6.5659
-6.47417
-6.4083
-6.37772
-6.3932
-6.46168
-6.58206
-6.74779
-6.95042
-7.18173
-7.43321
-7.70311
-7.99356
-8.3032
-8.62183
-8.94806
-9.28323
-9.62496
-9.98447
-10.3724
-10.7797
-11.1856
-11.5745
-11.9376
-12.2612
-12.5373
-12.7762
-12.9827
-13.168
-13.3441
-13.5211
-13.701
-13.8825
-14.0699
-14.2658
-14.4702
-14.6813
-14.8917
-15.0884
-15.2509
-15.3619
-15.4118
-15.4024
-15.3415
-15.2424
-15.1167
-14.971
-14.8099
-14.6348
-14.4502
-14.2658
-14.0908
-13.9332
-13.7864
-13.6411
-13.4995
-13.3577
-13.1955
-12.9955
-12.7498
-12.4568
-12.1215
-11.7536
-11.3651
-10.9732
-10.5995
-10.2722
-10.0017
-9.75834
-9.49701
-9.17767
-8.77421
-8.27712
-7.68908
-7.01598
-6.26101
-5.4309
-4.54914
-3.6483
-2.76563
-1.92886
-1.15208
-0.438201
0.214539
0.811531
1.35972
1.86215
2.32369
2.75341
3.16755
3.58675
4.02959
4.50463
5.00829
5.52062
6.00633
6.43812
6.81228
7.13151
7.39911
7.62059
7.79888
7.94255
8.08386
8.27862
8.53996
8.7856
8.89825
8.87062
8.76471
8.60436
8.38869
8.16723
7.99811
7.9149
7.93831
8.08071
8.32525
8.6312
8.97784
9.39682
9.91498
10.5407
11.272
12.0902
12.96
13.839
14.6872
15.4515
16.0572
16.4652
16.7127
16.8587
16.9394
16.9731
16.9749
16.9611
16.9534
16.9805
17.066
17.216
17.4249
17.68
17.9569
18.2175
18.4193
18.5323
18.547
18.4669
18.3142
18.1156
17.9073
17.7076
17.5417
17.3577
-3.59253
-3.68439
-3.8862
-4.17226
-4.50601
-4.85999
-5.21763
-5.56849
-5.90598
-6.2267
-6.52927
-6.81134
-7.06803
-7.29408
-7.48556
-7.63885
-7.75112
-7.82058
-7.84694
-7.83199
-7.78026
-7.6989
-7.59778
-7.48766
-7.37849
-7.27998
-7.20112
-7.14887
-7.13048
-7.15455
-7.22517
-7.34056
-7.49613
-7.6875
-7.91337
-8.17168
-8.46087
-8.7809
-9.12417
-9.48051
-9.8466
-10.2287
-10.6292
-11.0534
-11.4999
-11.9556
-12.4037
-12.8279
-13.2159
-13.5651
-13.8733
-14.1377
-14.36
-14.5493
-14.7217
-14.8866
-15.0427
-15.1946
-15.35
-15.5153
-15.6912
-15.8736
-16.0536
-16.2156
-16.3402
-16.4124
-16.428
-16.3963
-16.3322
-16.2481
-16.1474
-16.0296
-15.8911
-15.7316
-15.5605
-15.3884
-15.2234
-15.069
-14.9222
-14.784
-14.6551
-14.5213
-14.359
-14.1548
-13.9029
-13.6043
-13.2686
-12.9096
-12.5369
-12.1672
-11.8352
-11.5706
-11.3557
-11.1422
-10.8862
-10.5538
-10.1234
-9.58935
-8.95588
-8.23122
-7.42412
-6.54873
-5.63723
-4.73313
-3.86594
-3.03743
-2.25467
-1.52647
-0.851753
-0.221176
0.370192
0.92189
1.43407
1.91272
2.37294
2.83479
3.31541
3.82108
4.34217
4.85225
5.32092
5.73632
6.10293
6.42316
6.69883
6.93228
7.11925
7.26637
7.41935
7.63069
7.87684
8.02927
8.0166
7.91304
7.76691
7.56906
7.34118
7.14721
7.02094
6.98298
7.05121
7.22998
7.49612
7.80937
8.16087
8.58669
9.11022
9.74096
10.481
11.3155
12.2077
13.1078
13.9655
14.7209
15.3062
15.7065
15.9747
16.1618
16.2863
16.3557
16.3851
16.3958
16.4144
16.4709
16.5856
16.7616
16.9911
17.2618
17.5494
17.813
18.0104
18.1199
18.1366
18.0598
17.9041
17.6907
17.4541
17.2236
17.0242
16.8166
-3.83044
-3.98015
-4.26018
-4.61199
-4.99693
-5.39409
-5.79116
-6.18053
-6.55668
-6.91497
-7.25123
-7.56055
-7.83715
-8.07612
-8.2747
-8.43126
-8.54404
-8.61159
-8.63381
-8.61287
-8.55529
-8.47148
-8.37264
-8.26949
-8.17316
-8.09384
-8.03836
-8.01024
-8.01244
-8.04892
-8.12181
-8.23019
-8.37325
-8.55305
-8.77404
-9.03989
-9.35084
-9.70346
-10.0885
-10.4983
-10.9307
-11.3887
-11.8733
-12.3787
-12.8889
-13.3864
-13.8606
-14.304
-14.7086
-15.0738
-15.3986
-15.6728
-15.8937
-16.0699
-16.2174
-16.3449
-16.4568
-16.564
-16.6771
-16.8038
-16.9446
-17.0942
-17.2406
-17.3669
-17.4548
-17.4919
-17.4785
-17.4295
-17.3639
-17.2912
-17.2045
-17.0977
-16.9677
-16.8205
-16.6679
-16.5171
-16.3688
-16.2235
-16.0836
-15.9556
-15.8367
-15.7071
-15.5486
-15.3514
-15.1109
-14.8294
-14.5162
-14.1816
-13.8339
-13.4983
-13.2183
-13.008
-12.8242
-12.617
-12.3501
-11.995
-11.5353
-10.9675
-10.2964
-9.53225
-8.68813
-7.78319
-6.85834
-5.96201
-5.10402
-4.26943
-3.4693
-2.71722
-2.00988
-1.33751
-0.698269
-0.0947926
0.470248
1.0005
1.50955
2.01565
2.53299
3.06376
3.59227
4.09153
4.54281
4.9461
5.30663
5.62522
5.9036
6.14281
6.33354
6.48377
6.64606
6.85973
7.06016
7.1073
7.00678
6.86274
6.68551
6.4574
6.22863
6.05692
5.96
5.95561
6.05857
6.26499
6.54816
6.87141
7.23293
7.66764
8.19722
8.83333
9.58159
10.4304
11.3417
12.2591
13.1227
13.869
14.4431
14.8488
15.1462
15.3775
15.5466
15.6533
15.7132
15.7513
15.7981
15.8849
16.0309
16.2349
16.4848
16.7684
17.0628
17.3262
17.5188
17.6271
17.6477
17.5742
17.4149
17.187
16.9254
16.6701
16.4497
16.2329
-4.19908
-4.37841
-4.68009
-5.04181
-5.43863
-5.85706
-6.28562
-6.7153
-7.13831
-7.54636
-7.93022
-8.28038
-8.5893
-8.85298
-9.07002
-9.23965
-9.36058
-9.43244
-9.45643
-9.43637
-9.38021
-9.29947
-9.20712
-9.11575
-9.03676
-8.97987
-8.95079
-8.95098
-8.98026
-9.03896
-9.12716
-9.24498
-9.39568
-9.58553
-9.82313
-10.1149
-10.4622
-10.8606
-11.3041
-11.7836
-12.2944
-12.836
-13.4028
-13.9787
-14.5394
-15.0675
-15.5595
-16.0134
-16.4231
-16.7877
-17.103
-17.357
-17.5486
-17.6866
-17.7857
-17.8585
-17.9154
-17.9702
-18.0355
-18.1179
-18.2173
-18.3273
-18.4349
-18.5227
-18.5738
-18.5789
-18.5415
-18.4783
-18.4117
-18.3465
-18.2692
-18.1719
-18.0553
-17.9276
-17.7963
-17.6621
-17.5221
-17.3789
-17.2403
-17.1138
-16.9949
-16.8669
-16.7164
-16.5354
-16.3198
-16.0707
-15.7914
-15.487
-15.1699
-14.8779
-14.6549
-14.4924
-14.3316
-14.1268
-13.8475
-13.4701
-12.9829
-12.385
-11.6835
-10.8907
-10.0229
-9.10342
-8.17934
-7.29503
-6.43787
-5.58761
-4.7624
-3.97872
-3.23233
-2.51461
-1.82516
-1.16803
-0.54757
0.0376724
0.598359
1.14912
1.69989
2.24774
2.77431
3.25916
3.69605
4.08994
4.44373
4.75787
5.03503
5.27515
5.46739
5.62245
5.78882
5.98729
6.12095
6.07401
5.91953
5.75123
5.54802
5.30205
5.08111
4.92807
4.85383
4.87578
5.00426
5.22926
5.52321
5.85448
6.22527
6.66824
7.20461
7.84715
8.60347
9.46417
10.3908
11.3218
12.1896
12.9299
13.5006
13.919
14.2486
14.5242
14.7376
14.882
14.9737
15.0402
15.1153
15.2322
15.4101
15.6432
15.9138
16.2084
16.506
16.7661
16.9536
17.0626
17.0875
17.0165
16.8548
16.617
16.3371
16.0641
15.8305
15.6108
-4.60318
-4.76894
-5.04802
-5.39841
-5.80243
-6.24277
-6.70383
-7.17386
-7.64236
-8.09807
-8.52892
-8.92245
-9.26943
-9.56573
-9.80992
-10.0015
-10.1402
-10.2262
-10.2613
-10.2503
-10.2025
-10.1307
-10.0497
-9.9741
-9.91665
-9.88616
-9.88679
-9.91926
-9.98231
-10.0745
-10.1955
-10.3477
-10.537
-10.7714
-11.0612
-11.4126
-11.8246
-12.292
-12.8095
-13.3667
-13.9554
-14.5712
-15.2021
-15.825
-16.4171
-16.9679
-17.4754
-17.9338
-18.3361
-18.6813
-18.964
-19.1732
-19.312
-19.3922
-19.4289
-19.438
-19.4335
-19.4297
-19.4387
-19.4671
-19.5147
-19.5752
-19.6358
-19.6802
-19.694
-19.6708
-19.615
-19.5426
-19.4784
-19.4226
-19.3576
-19.2767
-19.1805
-19.0719
-18.9516
-18.8177
-18.6706
-18.5168
-18.3667
-18.2286
-18.0992
-17.9682
-17.8255
-17.6633
-17.477
-17.2645
-17.0215
-16.7498
-16.4691
-16.2275
-16.0639
-15.9482
-15.8148
-15.6213
-15.3406
-14.9516
-14.4465
-13.8273
-13.104
-12.2911
-11.4076
-10.4803
-9.55869
-8.67934
-7.81175
-6.93839
-6.08454
-5.26778
-4.48413
-3.72565
-2.99072
-2.28384
-1.61004
-0.970208
-0.358167
0.235642
0.816153
1.37622
1.89911
2.374
2.80332
3.19174
3.53944
3.84733
4.11946
4.35632
4.54944
4.71058
4.87506
5.04387
5.10693
4.98835
4.80161
4.61555
4.39075
4.13707
3.92785
3.79142
3.73626
3.77895
3.92513
4.16088
4.45956
4.79489
5.17161
5.62078
6.16405
6.81421
7.57897
8.44995
9.38841
10.3292
11.1996
11.9362
12.5083
12.9424
13.304
13.6219
13.8776
14.0585
14.1815
14.2759
14.3776
14.5228
14.7309
14.9923
15.2833
15.5876
15.8859
16.1408
16.3241
16.4352
16.4636
16.394
16.2329
15.9923
15.7041
15.4219
15.1808
14.9617
-4.91372
-5.05937
-5.32272
-5.67777
-6.09896
-6.56239
-7.05156
-7.55353
-8.0557
-8.54603
-9.01302
-9.44434
-9.82972
-10.1629
-10.4406
-10.6622
-10.828
-10.9389
-10.9972
-11.0086
-10.9832
-10.9337
-10.8744
-10.8218
-10.7908
-10.7906
-10.8246
-10.8934
-10.9953
-11.1297
-11.2983
-11.5063
-11.7603
-12.0694
-12.4436
-12.8858
-13.3902
-13.949
-14.5536
-15.1905
-15.8486
-16.5217
-17.1954
-17.8467
-18.4592
-19.0277
-19.546
-20.0013
-20.3863
-20.7019
-20.9434
-21.1005
-21.1784
-21.1917
-21.1586
-21.0971
-21.0221
-20.9478
-20.8867
-20.847
-20.8306
-20.8327
-20.8424
-20.8451
-20.8281
-20.7858
-20.7212
-20.6471
-20.5863
-20.5396
-20.4875
-20.4229
-20.3422
-20.2411
-20.116
-19.9679
-19.802
-19.6266
-19.4523
-19.2879
-19.1353
-18.9917
-18.8508
-18.7044
-18.5453
-18.3665
-18.1576
-17.9199
-17.6807
-17.4934
-17.3901
-17.3244
-17.2273
-17.058
-16.7895
-16.4019
-15.8905
-15.2613
-14.5271
-13.7036
-12.8107
-11.8755
-10.9476
-10.059
-9.17213
-8.27508
-7.39779
-6.555
-5.74282
-4.95387
-4.18434
-3.43701
-2.71668
-2.02697
-1.3671
-0.733041
-0.124122
0.450177
0.976394
1.45111
1.8802
2.26643
2.60922
2.91096
3.17732
3.41093
3.6073
3.77582
3.93423
4.06611
4.06677
3.89817
3.69003
3.48835
3.24603
2.99117
2.79521
2.67487
2.63687
2.69555
2.85243
3.0919
3.38969
3.72487
4.1038
4.55671
5.10663
5.76543
6.53917
7.41922
8.36674
9.31368
10.1838
10.9169
11.4923
11.9427
12.3333
12.6891
12.983
13.1975
13.3503
13.4715
13.5981
13.7684
14.0028
14.289
14.5986
14.912
15.2106
15.4607
15.641
15.7547
15.7858
15.7177
15.5608
15.325
15.0385
14.7564
14.5141
14.2989
-5.08297
-5.23256
-5.51032
-5.88083
-6.3117
-6.78337
-7.28563
-7.80752
-8.33498
-8.85458
-9.35437
-9.8225
-10.2485
-10.624
-10.9433
-11.2042
-11.4072
-11.5538
-11.6473
-11.6951
-11.7078
-11.6972
-11.6765
-11.6614
-11.6664
-11.7012
-11.7707
-11.8769
-12.0201
-12.2022
-12.4284
-12.7057
-13.0409
-13.4415
-13.914
-14.4558
-15.0579
-15.7096
-16.3975
-17.106
-17.8222
-18.5397
-19.2464
-19.9227
-20.5561
-21.1407
-21.6644
-22.1106
-22.4731
-22.7561
-22.9559
-23.063
-23.0823
-23.0292
-22.9239
-22.7869
-22.6349
-22.4825
-22.3424
-22.2257
-22.1388
-22.0807
-22.0429
-22.0126
-21.9765
-21.926
-21.861
-21.7908
-21.7338
-21.6909
-21.6445
-21.5868
-21.5093
-21.4024
-21.2622
-21.0927
-20.902
-20.6976
-20.4888
-20.286
-20.0983
-19.9312
-19.7835
-19.646
-19.508
-19.3565
-19.1777
-18.9749
-18.78
-18.6489
-18.6064
-18.5943
-18.5397
-18.4029
-18.1555
-17.7785
-17.271
-16.643
-15.9098
-15.086
-14.1907
-13.2485
-12.3054
-11.3961
-10.4868
-9.57187
-8.68099
-7.82265
-6.9924
-6.18399
-5.39178
-4.61494
-3.8575
-3.12613
-2.42482
-1.75396
-1.11607
-0.522154
0.0162976
0.499333
0.933409
1.32059
1.66171
1.96116
2.22597
2.46118
2.66575
2.84351
2.99423
3.08928
3.0401
2.83701
2.61275
2.39718
2.14209
1.89065
1.70937
1.60546
1.58296
1.65329
1.81471
2.05153
2.34293
2.67375
3.05174
3.50675
4.06345
4.73177
5.5147
6.40238
7.35584
8.3048
9.17093
9.89875
10.4771
10.942
11.3567
11.7435
12.0689
12.313
12.4932
12.6398
12.7898
12.9819
13.2372
13.5422
13.8665
14.1884
14.4893
14.738
14.9171
15.0331
15.0667
15.0016
14.8527
14.6284
14.352
14.0773
13.8397
13.6317
-5.17279
-5.33402
-5.61982
-5.98683
-6.41498
-6.89242
-7.40835
-7.94952
-8.50109
-9.0493
-9.58158
-10.0861
-10.5524
-10.972
-11.3377
-11.6462
-11.8978
-12.0948
-12.24
-12.3403
-12.4058
-12.4478
-12.4793
-12.5149
-12.5679
-12.6475
-12.7599
-12.9082
-13.0943
-13.3237
-13.605
-13.9472
-14.3572
-14.8407
-15.3988
-16.0232
-16.7028
-17.4253
-18.1764
-18.9418
-19.7066
-20.462
-21.1985
-21.8994
-22.5529
-23.1507
-23.6771
-24.1151
-24.4593
-24.7157
-24.8813
-24.9461
-24.9149
-24.804
-24.6337
-24.4256
-24.1994
-23.9712
-23.7551
-23.5657
-23.4134
-23.3004
-23.2212
-23.1637
-23.1132
-23.0575
-22.9924
-22.9243
-22.8671
-22.8193
-22.768
-22.7061
-22.6221
-22.5042
-22.3479
-22.1573
-21.9397
-21.702
-21.4534
-21.2073
-20.9796
-20.7832
-20.6217
-20.4857
-20.3608
-20.23
-20.0783
-19.9119
-19.7633
-19.6879
-19.7038
-19.744
-19.7296
-19.6226
-19.3977
-19.0373
-18.543
-17.9271
-17.2053
-16.391
-15.5017
-14.5579
-13.6014
-12.6715
-11.7439
-10.818
-9.92105
-9.0554
-8.21615
-7.39813
-6.59291
-5.79618
-5.0113
-4.24741
-3.51186
-2.80786
-2.14121
-1.52455
-0.969044
-0.473473
-0.0308962
0.362097
0.708127
1.01256
1.28314
1.52703
1.74571
1.93554
2.08001
2.14341
2.0567
1.83004
1.59452
1.36882
1.1068
0.861833
0.695437
0.607056
0.597651
0.67601
0.837231
1.06607
1.34589
1.6684
2.04354
2.50032
3.06434
3.74292
4.53485
5.4281
6.38315
7.3287
8.18636
8.90606
9.48497
9.96074
10.3927
10.8011
11.1499
11.4178
11.6222
11.7923
11.9636
12.1741
12.445
12.7625
13.0967
13.4254
13.7314
13.9838
14.1644
14.2823
14.3191
14.2597
14.1226
13.9156
13.6553
13.3926
13.1631
12.9644
-5.21318
-5.36785
-5.64011
-6.00102
-6.4353
-6.92854
-7.46578
-8.0312
-8.60956
-9.18746
-9.75262
-10.2935
-10.8
-11.2633
-11.6766
-12.0358
-12.3411
-12.5955
-12.8037
-12.9713
-13.1063
-13.2181
-13.3182
-13.4191
-13.5315
-13.6623
-13.8174
-14.0016
-14.2203
-14.4828
-14.8011
-15.1853
-15.6429
-16.1782
-16.7891
-17.4645
-18.1919
-18.9589
-19.7532
-20.5616
-21.3661
-22.153
-22.9141
-23.6354
-24.3046
-24.9115
-25.4407
-25.8767
-26.2146
-26.4591
-26.6055
-26.6415
-26.5725
-26.417
-26.1951
-25.9294
-25.6414
-25.35
-25.0718
-24.8241
-24.6194
-24.4614
-24.3466
-24.2645
-24.1995
-24.137
-24.0692
-23.9994
-23.9357
-23.8735
-23.8063
-23.7322
-23.6387
-23.5107
-23.3417
-23.1328
-22.8891
-22.6174
-22.3284
-22.0389
-21.7715
-21.546
-21.3687
-21.2298
-21.1118
-20.9973
-20.8721
-20.7445
-20.6432
-20.6168
-20.6804
-20.7628
-20.7775
-20.6903
-20.483
-20.1415
-19.6675
-19.0726
-18.3719
-17.5772
-16.7021
-15.7644
-14.8046
-13.8654
-12.9298
-12.0006
-11.1029
-10.2361
-9.39543
-8.57523
-7.76338
-6.95304
-6.14752
-5.35785
-4.59375
-3.86094
-3.16852
-2.53136
-1.9609
-1.45479
-1.00306
-0.599332
-0.240714
0.0772586
0.36232
0.623097
0.86203
1.06794
1.21137
1.25221
1.14019
0.900198
0.659641
0.429432
0.166475
-0.0715465
-0.225514
-0.301012
-0.300094
-0.216605
-0.0590293
0.158027
0.422486
0.73368
1.10528
1.56454
2.13645
2.82544
3.6254
4.52112
5.47206
6.40774
7.25214
7.96052
8.53662
9.01826
9.45897
9.87779
10.2401
10.5251
10.7493
10.94
11.1297
11.355
11.6369
11.9621
12.3017
12.6352
12.9477
13.2085
13.3941
13.5142
13.5559
13.5054
13.3832
13.1974
12.9571
12.7086
12.4885
12.2989
-5.15395
-5.30204
-5.57373
-5.94734
-6.40428
-6.92572
-7.494
-8.09202
-8.70396
-9.31599
-9.91622
-10.494
-11.0394
-11.5444
-12.0041
-12.4158
-12.7797
-13.0986
-13.3772
-13.6201
-13.8323
-14.0203
-14.1924
-14.3579
-14.5244
-14.6978
-14.885
-15.0925
-15.3284
-15.6056
-15.9372
-16.3342
-16.8053
-17.3556
-17.9829
-18.6762
-19.4218
-20.2069
-21.021
-21.8529
-22.683
-23.4918
-24.2699
-25.0058
-25.6868
-26.3021
-26.8376
-27.2802
-27.6251
-27.8749
-28.0219
-28.0481
-27.958
-27.7729
-27.5148
-27.2077
-26.8767
-26.5428
-26.2247
-25.9404
-25.7013
-25.5115
-25.3694
-25.2667
-25.1886
-25.1189
-25.0466
-24.9712
-24.8976
-24.8193
-24.734
-24.6456
-24.5436
-24.4102
-24.2334
-24.01
-23.7435
-23.4407
-23.1143
-22.7852
-22.482
-22.2297
-22.0363
-21.8905
-21.7731
-21.6691
-21.5687
-21.4802
-21.4257
-21.4377
-21.5302
-21.6375
-21.6662
-21.5861
-21.3888
-21.0644
-20.613
-20.0439
-19.3704
-18.6021
-17.7495
-16.8296
-15.8819
-14.9487
-14.0175
-13.0939
-12.2033
-11.3432
-10.5079
-9.69031
-8.8751
-8.05393
-7.23092
-6.41966
-5.63192
-4.87578
-4.16401
-3.51324
-2.93521
-2.42525
-1.96739
-1.55092
-1.17402
-0.834718
-0.526324
-0.240303
0.0245956
0.251229
0.401917
0.432664
0.309465
0.0679139
-0.171549
-0.399592
-0.658138
-0.891187
-1.03692
-1.10267
-1.09467
-1.00902
-0.857483
-0.65424
-0.406756
-0.10849
0.259559
0.722729
1.30297
2.00126
2.80664
3.70049
4.64108
5.56021
6.38654
7.08055
7.65044
8.13231
8.57238
8.98961
9.35464
9.64905
9.88753
10.0944
10.2987
10.5349
10.824
11.1534
11.4957
11.8324
12.1514
12.4228
12.6163
12.7399
12.7885
12.7501
12.6448
12.4818
12.2631
12.0295
11.819
11.6375
-4.98678
-5.14275
-5.43248
-5.83165
-6.31924
-6.87488
-7.48004
-8.11673
-8.76791
-9.41871
-10.0568
-10.6722
-11.2574
-11.8072
-12.319
-12.7908
-13.2211
-13.6093
-13.9572
-14.2683
-14.5468
-14.7981
-15.0285
-15.2443
-15.4512
-15.6559
-15.8662
-16.0892
-16.3346
-16.615
-16.9429
-17.3294
-17.7839
-18.3141
-18.9204
-19.595
-20.3256
-21.0997
-21.9059
-22.7353
-23.5716
-24.3905
-25.1763
-25.9193
-26.608
-27.2311
-27.7757
-28.231
-28.593
-28.864
-29.0341
-29.076
-28.987
-28.7911
-28.5159
-28.1893
-27.8393
-27.4884
-27.1552
-26.8561
-26.6007
-26.3929
-26.2324
-26.1136
-26.0238
-25.9475
-25.8726
-25.795
-25.7145
-25.6246
-25.5273
-25.4309
-25.3264
-25.1949
-25.018
-24.7867
-24.5042
-24.1781
-23.8224
-23.4607
-23.1259
-22.8478
-22.6352
-22.476
-22.3511
-22.2501
-22.1691
-22.1145
-22.1011
-22.1405
-22.2408
-22.3501
-22.376
-22.29
-22.093
-21.7798
-21.3481
-20.8031
-20.1562
-19.418
-18.5983
-17.713
-16.7971
-15.8876
-14.9746
-14.0672
-13.1937
-12.3497
-11.5271
-10.7164
-9.90035
-9.07012
-8.23171
-7.40213
-6.59583
-5.82311
-5.09932
-4.44285
-3.86574
-3.35971
-2.9007
-2.47243
-2.07431
-1.70797
-1.36918
-1.0514
-0.756006
-0.50408
-0.33632
-0.301415
-0.420165
-0.650781
-0.884301
-1.10326
-1.35225
-1.58278
-1.72528
-1.78477
-1.77373
-1.68903
-1.54448
-1.35544
-1.125
-0.840012
-0.475137
-0.00675961
0.581743
1.28676
2.09324
2.97955
3.90322
4.79952
5.60323
6.27991
6.83999
7.31591
7.74567
8.14957
8.50713
8.80344
9.0503
9.2679
9.48173
9.72426
10.0167
10.3473
10.6908
11.0304
11.3553
11.637
11.84
11.9689
12.0263
12.0028
11.9154
11.7741
11.5766
11.3575
11.157
10.9824
-4.71876
-4.88422
-5.18915
-5.60943
-6.12458
-6.71288
-7.35437
-8.02987
-8.72158
-9.41504
-10.0993
-10.7649
-11.4034
-12.0092
-12.5793
-13.1116
-13.6035
-14.0525
-14.459
-14.8261
-15.159
-15.462
-15.7381
-15.9912
-16.2271
-16.4539
-16.6807
-16.915
-17.1658
-17.4427
-17.7547
-18.111
-18.5219
-18.9981
-19.5465
-20.1663
-20.8509
-21.5887
-22.3655
-23.1702
-23.9906
-24.8037
-25.5877
-26.3301
-27.0196
-27.6466
-28.2016
-28.6756
-29.0656
-29.3724
-29.5836
-29.6652
-29.6042
-29.4233
-29.1557
-28.835
-28.4926
-28.1511
-27.8274
-27.535
-27.2817
-27.0709
-26.9031
-26.7751
-26.6774
-26.5984
-26.5263
-26.4533
-26.3746
-26.2824
-26.181
-26.0828
-25.9815
-25.8582
-25.6901
-25.4617
-25.1725
-24.8313
-24.4541
-24.0666
-23.7043
-23.4003
-23.165
-22.9859
-22.8463
-22.7415
-22.6723
-22.641
-22.654
-22.7071
-22.7959
-22.8829
-22.8889
-22.7847
-22.5771
-22.2652
-21.8455
-21.3186
-20.6958
-19.9923
-19.2188
-18.3854
-17.5188
-16.6499
-15.7712
-14.8932
-14.0476
-13.2295
-12.4275
-11.6292
-10.8158
-9.97898
-9.12808
-8.28418
-7.46438
-6.68155
-5.95357
-5.30014
-4.73179
-4.23559
-3.77934
-3.34112
-2.92111
-2.52455
-2.15089
-1.7973
-1.46802
-1.18643
-0.992547
-0.939061
-1.03776
-1.24623
-1.46821
-1.67237
-1.90769
-2.13625
-2.28032
-2.33766
-2.32735
-2.24681
-2.10979
-1.93415
-1.7198
-1.4469
-1.08429
-0.610172
-0.0145418
0.693511
1.49537
2.3671
3.26688
4.13489
4.9123
5.56866
6.1147
6.57786
6.98801
7.3679
7.7086
7.99953
8.2488
8.47134
8.6892
8.93329
9.22434
9.55286
9.8965
10.2395
10.5698
10.8599
11.0722
11.2075
11.275
11.2679
11.198
11.0759
10.8978
10.6928
10.502
10.334
-4.28595
-4.45623
-4.77051
-5.20823
-5.7476
-6.36588
-7.0435
-7.76217
-8.50456
-9.25549
-10.0027
-10.7343
-11.4378
-12.1033
-12.7267
-13.3068
-13.8432
-14.3363
-14.7879
-15.2021
-15.5821
-15.9289
-16.2423
-16.5254
-16.7855
-17.0324
-17.2749
-17.519
-17.7707
-18.0362
-18.3207
-18.6317
-18.9816
-19.3849
-19.8543
-20.3965
-21.0121
-21.6927
-22.421
-23.1796
-23.9578
-24.7377
-25.4973
-26.2231
-26.9056
-27.5362
-28.1068
-28.608
-29.0347
-29.3854
-29.6476
-29.787
-29.7838
-29.653
-29.4261
-29.1414
-28.8353
-28.5315
-28.244
-27.9825
-27.7532
-27.5588
-27.3999
-27.2749
-27.1782
-27.102
-27.0356
-26.9688
-26.8935
-26.8019
-26.7002
-26.6026
-26.5075
-26.4001
-26.2526
-26.0392
-25.7532
-25.4048
-25.0128
-24.605
-24.2177
-23.8846
-23.6192
-23.4139
-23.2564
-23.1441
-23.078
-23.0555
-23.0746
-23.1231
-23.1848
-23.2321
-23.2049
-23.0734
-22.845
-22.5225
-22.1032
-21.5884
-20.9898
-20.3263
-19.6086
-18.84
-18.0376
-17.2248
-16.3959
-15.561
-14.7532
-13.9693
-13.1944
-12.4128
-11.6052
-10.7652
-9.90617
-9.0539
-8.22854
-7.44533
-6.72403
-6.08396
-5.53236
-5.05057
-4.59922
-4.15199
-3.70976
-3.28071
-2.86887
-2.47651
-2.11085
-1.79613
-1.57019
-1.48507
-1.54919
-1.72459
-1.92553
-2.11248
-2.32935
-2.55176
-2.70104
-2.76119
-2.75457