/*--------------------------------*- C++ -*----------------------------------*\
  =========                 |
  \\      /  F ield         | OpenFOAM: The Open Source CFD Toolbox
   \\    /   O peration     | Website:  https://openfoam.org
    \\  /    A nd           | Version:  6
     \\/     M anipulation  |
\*---------------------------------------------------------------------------*/
FoamFile
{
    version     2.0;
    format      ascii;
    class       volScalarField;
    location    "0.25";
    object      pPrime2Mean;
}
// * * * * * * * * * * * * * * * * * * * * * * * * * * * * * * * * * * * * * //

dimensions      [0 4 -4 0 0 0 0];

internalField   nonuniform List<scalar> 
12225
(
1.91255e+06
1.88258e+06
1.85261e+06
1.82337e+06
1.795e+06
1.76753e+06
1.74093e+06
1.71516e+06
1.69018e+06
1.66591e+06
1.64226e+06
1.61914e+06
1.59642e+06
1.57393e+06
1.55143e+06
1.52856e+06
1.50465e+06
1.47804e+06
1.9126e+06
1.88262e+06
1.85265e+06
1.82339e+06
1.79503e+06
1.76755e+06
1.74096e+06
1.7152e+06
1.69022e+06
1.66595e+06
1.64232e+06
1.61921e+06
1.59651e+06
1.57406e+06
1.55163e+06
1.52888e+06
1.50526e+06
1.47957e+06
1.91269e+06
1.8827e+06
1.85272e+06
1.82346e+06
1.79509e+06
1.76762e+06
1.74102e+06
1.71527e+06
1.6903e+06
1.66605e+06
1.64244e+06
1.61937e+06
1.59672e+06
1.57435e+06
1.55205e+06
1.52955e+06
1.50646e+06
1.48232e+06
1.91283e+06
1.88283e+06
1.85283e+06
1.82357e+06
1.79519e+06
1.76772e+06
1.74113e+06
1.71539e+06
1.69044e+06
1.66622e+06
1.64265e+06
1.61964e+06
1.59707e+06
1.57482e+06
1.55273e+06
1.53059e+06
1.50822e+06
1.48563e+06
1.91307e+06
1.88304e+06
1.85301e+06
1.82372e+06
1.79534e+06
1.76787e+06
1.74129e+06
1.71557e+06
1.69065e+06
1.66647e+06
1.64295e+06
1.62002e+06
1.59757e+06
1.57549e+06
1.55367e+06
1.53199e+06
1.51042e+06
1.48921e+06
1.91345e+06
1.88332e+06
1.85325e+06
1.82394e+06
1.79555e+06
1.76808e+06
1.74151e+06
1.71581e+06
1.69093e+06
1.6668e+06
1.64336e+06
1.62053e+06
1.59823e+06
1.57638e+06
1.55489e+06
1.53373e+06
1.51296e+06
1.49293e+06
1.91389e+06
1.88369e+06
1.85356e+06
1.82422e+06
1.79582e+06
1.76835e+06
1.7418e+06
1.71614e+06
1.6913e+06
1.66724e+06
1.6439e+06
1.6212e+06
1.59909e+06
1.57749e+06
1.55638e+06
1.53577e+06
1.51577e+06
1.49672e+06
1.91449e+06
1.88417e+06
1.85397e+06
1.82459e+06
1.79617e+06
1.76871e+06
1.74218e+06
1.71655e+06
1.69178e+06
1.6678e+06
1.64457e+06
1.62203e+06
1.60014e+06
1.57884e+06
1.55813e+06
1.53807e+06
1.51878e+06
1.50054e+06
1.91523e+06
1.88476e+06
1.85448e+06
1.82505e+06
1.79661e+06
1.76915e+06
1.74264e+06
1.71706e+06
1.69236e+06
1.66849e+06
1.6454e+06
1.62304e+06
1.60138e+06
1.58041e+06
1.56012e+06
1.54059e+06
1.52195e+06
1.50438e+06
1.91616e+06
1.88549e+06
1.8551e+06
1.82562e+06
1.79715e+06
1.76969e+06
1.74321e+06
1.71769e+06
1.69307e+06
1.66932e+06
1.64638e+06
1.62423e+06
1.60284e+06
1.5822e+06
1.56233e+06
1.54331e+06
1.52523e+06
1.50824e+06
1.91721e+06
1.88636e+06
1.85586e+06
1.8263e+06
1.79779e+06
1.77034e+06
1.7439e+06
1.71844e+06
1.69392e+06
1.67029e+06
1.64753e+06
1.6256e+06
1.60449e+06
1.58419e+06
1.56474e+06
1.54619e+06
1.52861e+06
1.51211e+06
1.91823e+06
1.88731e+06
1.85668e+06
1.82704e+06
1.7985e+06
1.77105e+06
1.74464e+06
1.71924e+06
1.69482e+06
1.67133e+06
1.64874e+06
1.62703e+06
1.60618e+06
1.5862e+06
1.56711e+06
1.54895e+06
1.53178e+06
1.51566e+06
1.91953e+06
1.8884e+06
1.85762e+06
1.82789e+06
1.79931e+06
1.77185e+06
1.74548e+06
1.72015e+06
1.69583e+06
1.67249e+06
1.65008e+06
1.62859e+06
1.608e+06
1.58832e+06
1.56957e+06
1.55177e+06
1.53496e+06
1.51917e+06
1.92131e+06
1.88986e+06
1.85887e+06
1.829e+06
1.80036e+06
1.7729e+06
1.74657e+06
1.72133e+06
1.69714e+06
1.67396e+06
1.65177e+06
1.63053e+06
1.61024e+06
1.59089e+06
1.5725e+06
1.55507e+06
1.53863e+06
1.52317e+06
1.92377e+06
1.89179e+06
1.8605e+06
1.83046e+06
1.80173e+06
1.77426e+06
1.74798e+06
1.72285e+06
1.69881e+06
1.67583e+06
1.65388e+06
1.63293e+06
1.61296e+06
1.59396e+06
1.57594e+06
1.55889e+06
1.5428e+06
1.52766e+06
1.92695e+06
1.8943e+06
1.86259e+06
1.83232e+06
1.80349e+06
1.776e+06
1.74978e+06
1.72477e+06
1.70091e+06
1.67816e+06
1.65647e+06
1.63583e+06
1.6162e+06
1.59756e+06
1.57991e+06
1.56322e+06
1.54747e+06
1.53264e+06
1.9309e+06
1.89741e+06
1.86519e+06
1.83463e+06
1.80566e+06
1.77816e+06
1.75201e+06
1.72714e+06
1.70347e+06
1.68097e+06
1.65957e+06
1.63924e+06
1.61995e+06
1.60167e+06
1.58437e+06
1.56802e+06
1.55259e+06
1.53804e+06
1.93544e+06
1.90096e+06
1.86816e+06
1.83731e+06
1.80822e+06
1.78071e+06
1.75465e+06
1.72994e+06
1.70649e+06
1.68424e+06
1.66314e+06
1.64313e+06
1.62417e+06
1.60622e+06
1.58925e+06
1.57321e+06
1.55806e+06
1.54376e+06
1.94014e+06
1.90438e+06
1.87107e+06
1.84003e+06
1.81091e+06
1.78347e+06
1.75756e+06
1.73304e+06
1.70983e+06
1.68785e+06
1.66703e+06
1.64733e+06
1.62867e+06
1.61103e+06
1.59434e+06
1.57857e+06
1.56367e+06
1.54959e+06
1.93961e+06
1.90512e+06
1.87236e+06
1.84162e+06
1.81273e+06
1.78549e+06
1.75977e+06
1.73546e+06
1.71246e+06
1.69069e+06
1.67009e+06
1.6506e+06
1.63217e+06
1.61473e+06
1.59823e+06
1.58264e+06
1.5679e+06
1.55396e+06
1.9387e+06
1.905e+06
1.87277e+06
1.84239e+06
1.81375e+06
1.78672e+06
1.76118e+06
1.73703e+06
1.71418e+06
1.69256e+06
1.67211e+06
1.65276e+06
1.63446e+06
1.61714e+06
1.60077e+06
1.58528e+06
1.57064e+06
1.55678e+06
1.93745e+06
1.90455e+06
1.87282e+06
1.84277e+06
1.81438e+06
1.78754e+06
1.76215e+06
1.73813e+06
1.71541e+06
1.6939e+06
1.67356e+06
1.65431e+06
1.6361e+06
1.61887e+06
1.60258e+06
1.58716e+06
1.57258e+06
1.55879e+06
1.93638e+06
1.90403e+06
1.87271e+06
1.84294e+06
1.81476e+06
1.78808e+06
1.76281e+06
1.7389e+06
1.71627e+06
1.69485e+06
1.67458e+06
1.6554e+06
1.63726e+06
1.62009e+06
1.60385e+06
1.58849e+06
1.57395e+06
1.5602e+06
1.93544e+06
1.90355e+06
1.87254e+06
1.84301e+06
1.81499e+06
1.78843e+06
1.76326e+06
1.73943e+06
1.71687e+06
1.69551e+06
1.6753e+06
1.65617e+06
1.63807e+06
1.62095e+06
1.60475e+06
1.58942e+06
1.57491e+06
1.56118e+06
1.93471e+06
1.90314e+06
1.87238e+06
1.84302e+06
1.81513e+06
1.78866e+06
1.76356e+06
1.73979e+06
1.71727e+06
1.69596e+06
1.67579e+06
1.65669e+06
1.63863e+06
1.62154e+06
1.60536e+06
1.59006e+06
1.57557e+06
1.56186e+06
1.9341e+06
1.90282e+06
1.87225e+06
1.84302e+06
1.81521e+06
1.7888e+06
1.76376e+06
1.74003e+06
1.71755e+06
1.69626e+06
1.67611e+06
1.65705e+06
1.639e+06
1.62193e+06
1.60577e+06
1.59048e+06
1.57601e+06
1.56231e+06
1.93352e+06
1.90256e+06
1.87215e+06
1.843e+06
1.81526e+06
1.7889e+06
1.76389e+06
1.74018e+06
1.71772e+06
1.69646e+06
1.67633e+06
1.65727e+06
1.63924e+06
1.62218e+06
1.60604e+06
1.59076e+06
1.57629e+06
1.5626e+06
1.93316e+06
1.9024e+06
1.87208e+06
1.84299e+06
1.81528e+06
1.78895e+06
1.76396e+06
1.74027e+06
1.71783e+06
1.69657e+06
1.67645e+06
1.65741e+06
1.63939e+06
1.62233e+06
1.6062e+06
1.59092e+06
1.57646e+06
1.56278e+06
1.93298e+06
1.90231e+06
1.87204e+06
1.84299e+06
1.8153e+06
1.78898e+06
1.764e+06
1.74032e+06
1.71788e+06
1.69664e+06
1.67652e+06
1.65748e+06
1.63947e+06
1.62242e+06
1.60628e+06
1.59101e+06
1.57655e+06
1.56287e+06
1.93286e+06
1.90227e+06
1.87203e+06
1.84298e+06
1.8153e+06
1.78899e+06
1.76402e+06
1.74034e+06
1.71791e+06
1.69666e+06
1.67655e+06
1.65751e+06
1.6395e+06
1.62245e+06
1.60632e+06
1.59105e+06
1.57659e+06
1.56291e+06
1.24944e+06
1.24934e+06
1.24914e+06
1.24883e+06
1.24842e+06
1.24791e+06
1.24728e+06
1.24655e+06
1.2457e+06
1.24474e+06
1.24367e+06
1.24248e+06
1.24117e+06
1.23975e+06
1.23821e+06
1.23655e+06
1.23477e+06
1.23287e+06
1.23085e+06
1.22872e+06
1.22646e+06
1.22409e+06
1.22159e+06
1.21899e+06
1.21626e+06
1.21343e+06
1.21047e+06
1.20741e+06
1.20423e+06
1.20095e+06
1.19755e+06
1.19405e+06
1.19044e+06
1.18672e+06
1.18291e+06
1.17899e+06
1.17498e+06
1.17086e+06
1.16665e+06
1.16235e+06
1.15796e+06
1.15347e+06
1.14889e+06
1.14423e+06
1.13948e+06
1.13464e+06
1.12972e+06
1.12471e+06
1.11962e+06
1.11445e+06
1.1092e+06
1.10387e+06
1.09846e+06
1.09298e+06
1.08743e+06
1.08181e+06
1.07612e+06
1.07037e+06
1.06455e+06
1.05867e+06
1.05272e+06
1.04672e+06
1.04066e+06
1.03453e+06
1.02835e+06
1.02211e+06
1.01581e+06
1.00945e+06
1.00303e+06
996554
990021
983433
976791
970093
963342
956540
949696
942812
935889
928928
921928
914891
907817
900705
893557
886373
879156
871906
864622
857303
849948
842554
835124
827655
820147
812600
805021
797414
789782
782123
774436
766722
758981
751215
743425
735612
727775
719914
712037
704152
696257
688352
680435
672501
664547
656572
648575
640556
632516
624456
616380
608289
600188
592078
583966
575855
567747
559643
551540
543436
535327
527210
519083
510943
502792
494648
486529
478436
470368
462319
454278
446237
438188
430127
422053
413971
405891
397823
389774
381753
373762
365804
357877
349982
342117
334288
326500
318758
311059
303396
295763
288160
280588
273055
265564
258119
250722
243377
236090
228867
221712
214630
207620
200683
193823
187046
180360
173777
167324
161058
1.24989e+06
1.24979e+06
1.24959e+06
1.24928e+06
1.24887e+06
1.24835e+06
1.24772e+06
1.24698e+06
1.24613e+06
1.24517e+06
1.24409e+06
1.24289e+06
1.24158e+06
1.24015e+06
1.2386e+06
1.23693e+06
1.23515e+06
1.23324e+06
1.23121e+06
1.22907e+06
1.2268e+06
1.22442e+06
1.22192e+06
1.2193e+06
1.21656e+06
1.21372e+06
1.21075e+06
1.20768e+06
1.20449e+06
1.2012e+06
1.19779e+06
1.19428e+06
1.19067e+06
1.18694e+06
1.18312e+06
1.1792e+06
1.17517e+06
1.17105e+06
1.16684e+06
1.16253e+06
1.15813e+06
1.15364e+06
1.14905e+06
1.14438e+06
1.13962e+06
1.13478e+06
1.12985e+06
1.12484e+06
1.11974e+06
1.11456e+06
1.10931e+06
1.10397e+06
1.09856e+06
1.09308e+06
1.08752e+06
1.0819e+06
1.0762e+06
1.07045e+06
1.06463e+06
1.05874e+06
1.0528e+06
1.0468e+06
1.04073e+06
1.0346e+06
1.02842e+06
1.02217e+06
1.01587e+06
1.00951e+06
1.00308e+06
996604
990067
983474
976826
970125
963372
956572
949730
942847
935924
928962
921961
914924
907848
900735
893586
886403
879185
871934
864649
857330
849974
842581
835149
827678
820168
812623
805047
797442
789810
782151
774463
766747
759005
751237
743445
735629
727789
719931
712058
704175
696283
688378
680461
672526
664570
656593
648595
640574
632532
624471
616393
608302
600201
592092
583981
575871
567763
559659
551555
543450
535340
527222
519093
510952
502806
494671
486557
478467
470399
462347
454304
446260
438208
430145
422069
413987
405908
397839
389789
381765
373773
365813
357885
349989
342124
334295
326508
318767
311068
303404
295770
288166
280595
273061
265570
258124
250726
243380
236092
228868
221713
214630
207619
200682
193822
187043
180354
173767
167305
161007
1.25079e+06
1.25069e+06
1.25049e+06
1.25018e+06
1.24976e+06
1.24924e+06
1.2486e+06
1.24786e+06
1.247e+06
1.24602e+06
1.24493e+06
1.24372e+06
1.2424e+06
1.24095e+06
1.23939e+06
1.23771e+06
1.2359e+06
1.23398e+06
1.23193e+06
1.22977e+06
1.22749e+06
1.22508e+06
1.22256e+06
1.21992e+06
1.21717e+06
1.2143e+06
1.21132e+06
1.20822e+06
1.20502e+06
1.2017e+06
1.19828e+06
1.19475e+06
1.19112e+06
1.18738e+06
1.18354e+06
1.17961e+06
1.17557e+06
1.17143e+06
1.16721e+06
1.16288e+06
1.15847e+06
1.15396e+06
1.14937e+06
1.14468e+06
1.13991e+06
1.13506e+06
1.13012e+06
1.12509e+06
1.11999e+06
1.1148e+06
1.10953e+06
1.10419e+06
1.09876e+06
1.09327e+06
1.08771e+06
1.08207e+06
1.07637e+06
1.07061e+06
1.06478e+06
1.05889e+06
1.05294e+06
1.04694e+06
1.04087e+06
1.03473e+06
1.02854e+06
1.02229e+06
1.01598e+06
1.00961e+06
1.00318e+06
996698
990153
983552
976897
970192
963439
956640
949799
942915
935991
929028
922026
914985
907907
900792
893641
886456
879236
871984
864698
857378
850022
842628
835194
827722
820213
812671
805098
797495
789862
782201
774511
766793
759048
751277
743480
735660
727821
719965
712097
704217
696326
688422
680503
672566
664609
656629
648628
640604
632560
624497
616418
608326
600225
592117
584007
575898
567791
559686
551582
543476
535364
527243
519113
510975
502839
494714
486606
478519
470450
462395
454347
446299
438245
430179
422102
414020
405940
397870
389817
381790
373794
365831
357901
350003
342137
334309
326524
318784
311084
303419
295783
288178
280607
273073
265580
258133
250734
243386
236096
228871
221714
214630
207619
200681
193818
187036
180342
173747
167271
160933
1.25216e+06
1.25206e+06
1.25185e+06
1.25153e+06
1.25111e+06
1.25058e+06
1.24993e+06
1.24917e+06
1.2483e+06
1.24731e+06
1.2462e+06
1.24498e+06
1.24363e+06
1.24216e+06
1.24058e+06
1.23887e+06
1.23704e+06
1.23509e+06
1.23302e+06
1.23082e+06
1.22851e+06
1.22608e+06
1.22353e+06
1.22086e+06
1.21808e+06
1.21518e+06
1.21216e+06
1.20904e+06
1.20581e+06
1.20246e+06
1.19901e+06
1.19546e+06
1.1918e+06
1.18804e+06
1.18417e+06
1.18021e+06
1.17615e+06
1.172e+06
1.16775e+06
1.16341e+06
1.15898e+06
1.15445e+06
1.14984e+06
1.14513e+06
1.14034e+06
1.13547e+06
1.13051e+06
1.12547e+06
1.12035e+06
1.11514e+06
1.10986e+06
1.1045e+06
1.09906e+06
1.09355e+06
1.08797e+06
1.08233e+06
1.07662e+06
1.07084e+06
1.06501e+06
1.05911e+06
1.05315e+06
1.04714e+06
1.04106e+06
1.03492e+06
1.02872e+06
1.02246e+06
1.01615e+06
1.00977e+06
1.00333e+06
996830
990275
983666
977006
970297
963543
956743
949900
943015
936088
929122
922117
915073
907991
900872
893718
886529
879307
872052
864765
857445
850088
842692
835258
827787
820281
812741
805170
797567
789933
782269
774576
766855
759106
751329
743528
735707
727869
720016
712151
704273
696382
688478
680557
672617
664657
656674
648670
640643
632597
624532
616452
608360
600258
592152
584042
575934
567827
559723
551619
543512
535399
527276
519146
511015
502888
494772
486670
478585
470515
462457
454405
446353
438295
430226
422149
414067
405986
397913
389857
381825
373824
365857
357923
350023
342157
334329
326546
318806
311105
303438
295801
288195
280623
273088
265594
258146
250745
243395
236103
228874
221716
214631
207618
200678
193812
187025
180325
173721
167226
160849
1.25399e+06
1.25389e+06
1.25367e+06
1.25335e+06
1.25292e+06
1.25237e+06
1.25171e+06
1.25094e+06
1.25004e+06
1.24903e+06
1.2479e+06
1.24665e+06
1.24528e+06
1.24378e+06
1.24216e+06
1.24042e+06
1.23855e+06
1.23657e+06
1.23446e+06
1.23223e+06
1.22988e+06
1.2274e+06
1.22481e+06
1.22211e+06
1.21928e+06
1.21634e+06
1.21329e+06
1.21013e+06
1.20686e+06
1.20347e+06
1.19999e+06
1.1964e+06
1.1927e+06
1.18891e+06
1.18501e+06
1.18102e+06
1.17693e+06
1.17275e+06
1.16847e+06
1.1641e+06
1.15964e+06
1.15509e+06
1.15045e+06
1.14573e+06
1.14091e+06
1.13602e+06
1.13103e+06
1.12597e+06
1.12082e+06
1.11559e+06
1.11029e+06
1.1049e+06
1.09945e+06
1.09392e+06
1.08833e+06
1.08267e+06
1.07694e+06
1.07115e+06
1.0653e+06
1.05939e+06
1.05342e+06
1.04739e+06
1.0413e+06
1.03516e+06
1.02895e+06
1.02268e+06
1.01635e+06
1.00996e+06
1.00351e+06
996998
990434
983817
977152
970439
963681
956878
950032
943143
936213
929242
922232
915183
908096
900972
893812
886619
879394
872137
864849
857527
850169
842773
835340
827871
820368
812830
805259
797655
790019
782351
774654
766929
759175
751394
743590
735769
727932
720081
712217
704339
696448
688542
680618
672676
664713
656727
648720
640691
632641
624575
616493
608401
600299
592193
584085
575977
567872
559768
551665
543558
535444
527321
519194
511070
502951
494841
486744
478661
470591
462530
454474
446417
438356
430285
422207
414125
406044
397968
389907
381870
373863
365890
357953
350050
342183
334356
326573
318833
311130
303461
295822
288215
280642
273106
265611
258160
250758
243406
236111
228880
221719
214632
207617
200674
193805
187013
180305
173690
167175
160762
1.25631e+06
1.2562e+06
1.25598e+06
1.25564e+06
1.2552e+06
1.25464e+06
1.25396e+06
1.25316e+06
1.25224e+06
1.2512e+06
1.25004e+06
1.24875e+06
1.24734e+06
1.24581e+06
1.24415e+06
1.24236e+06
1.24045e+06
1.23842e+06
1.23626e+06
1.23398e+06
1.23158e+06
1.22906e+06
1.22642e+06
1.22366e+06
1.22079e+06
1.2178e+06
1.2147e+06
1.21149e+06
1.20817e+06
1.20474e+06
1.2012e+06
1.19757e+06
1.19383e+06
1.18999e+06
1.18605e+06
1.18202e+06
1.1779e+06
1.17368e+06
1.16936e+06
1.16496e+06
1.16047e+06
1.15589e+06
1.15122e+06
1.14646e+06
1.14162e+06
1.13669e+06
1.13168e+06
1.12658e+06
1.12141e+06
1.11615e+06
1.11082e+06
1.10541e+06
1.09993e+06
1.09438e+06
1.08876e+06
1.08308e+06
1.07734e+06
1.07153e+06
1.06566e+06
1.05973e+06
1.05375e+06
1.0477e+06
1.0416e+06
1.03544e+06
1.02922e+06
1.02293e+06
1.01659e+06
1.01019e+06
1.00372e+06
997203
990630
984006
977334
970616
963852
957044
950192
943297
936361
929384
922367
915312
908218
901087
893922
886724
879496
872237
864947
857625
850266
842869
835438
827972
820471
812935
805363
797756
790116
782445
774744
767013
759255
751470
743665
735845
728009
720158
712294
704415
696522
688613
680686
672741
664774
656786
648775
640743
632692
624624
616541
608448
600346
592240
584133
576027
567923
559821
551719
543613
535499
527378
519256
511138
503024
494919
486826
478745
470674
462610
454550
446489
438424
430352
422274
414192
406110
398032
389967
381923
373909
365931
357989
350083
342216
334389
326605
318863
311158
303487
295846
288237
280663
273126
265629
258176
250772
243418
236121
228886
221723
214634
207617
200671
193797
187000
180284
173656
167121
160677
1.25912e+06
1.259e+06
1.25877e+06
1.25843e+06
1.25796e+06
1.25738e+06
1.25667e+06
1.25585e+06
1.2549e+06
1.25382e+06
1.25262e+06
1.25129e+06
1.24983e+06
1.24825e+06
1.24654e+06
1.2447e+06
1.24274e+06
1.24065e+06
1.23843e+06
1.2361e+06
1.23363e+06
1.23105e+06
1.22835e+06
1.22553e+06
1.22259e+06
1.21955e+06
1.21638e+06
1.21311e+06
1.20974e+06
1.20625e+06
1.20266e+06
1.19897e+06
1.19518e+06
1.19129e+06
1.1873e+06
1.18322e+06
1.17905e+06
1.17479e+06
1.17043e+06
1.16599e+06
1.16146e+06
1.15684e+06
1.15213e+06
1.14734e+06
1.14246e+06
1.1375e+06
1.13245e+06
1.12732e+06
1.12211e+06
1.11682e+06
1.11146e+06
1.10602e+06
1.10051e+06
1.09493e+06
1.08928e+06
1.08357e+06
1.0778e+06
1.07197e+06
1.06608e+06
1.06014e+06
1.05413e+06
1.04807e+06
1.04195e+06
1.03577e+06
1.02953e+06
1.02323e+06
1.01687e+06
1.01045e+06
1.00398e+06
997449
990866
984234
977554
970827
964055
957239
950378
943475
936530
929545
922520
915456
908355
901218
894046
886843
879611
872350
865059
857735
850375
842980
835550
828087
820587
813050
805476
797866
790223
782547
774842
767108
759345
751559
743753
735932
728096
720244
712378
704497
696601
688688
680758
672809
664840
656849
648836
640802
632749
624679
616595
608500
600398
592293
584187
576082
567980
559880
551780
543675
535562
527444
519329
511215
503105
495004
486913
478832
470760
462694
454631
446566
438497
430424
422346
414264
406181
398101
390032
381982
373962
365978
358031
350122
342254
334426
326641
318897
311189
303515
295872
288261
280686
273147
265649
258194
250787
243432
236132
228895
221729
214637
207617
200667
193789
186985
180261
173621
167067
160595
1.26245e+06
1.26232e+06
1.26208e+06
1.26171e+06
1.26123e+06
1.26061e+06
1.25988e+06
1.25901e+06
1.25802e+06
1.2569e+06
1.25565e+06
1.25427e+06
1.25276e+06
1.25112e+06
1.24934e+06
1.24744e+06
1.24541e+06
1.24325e+06
1.24097e+06
1.23856e+06
1.23603e+06
1.23337e+06
1.2306e+06
1.22771e+06
1.2247e+06
1.22158e+06
1.21835e+06
1.21501e+06
1.21156e+06
1.20801e+06
1.20436e+06
1.2006e+06
1.19675e+06
1.1928e+06
1.18875e+06
1.18462e+06
1.18039e+06
1.17608e+06
1.17167e+06
1.16718e+06
1.16261e+06
1.15795e+06
1.1532e+06
1.14836e+06
1.14344e+06
1.13844e+06
1.13335e+06
1.12818e+06
1.12293e+06
1.1176e+06
1.11219e+06
1.10672e+06
1.10117e+06
1.09556e+06
1.08988e+06
1.08414e+06
1.07834e+06
1.07248e+06
1.06657e+06
1.0606e+06
1.05457e+06
1.04848e+06
1.04234e+06
1.03614e+06
1.02988e+06
1.02357e+06
1.01719e+06
1.01076e+06
1.00428e+06
997736
991143
984500
977809
971071
964288
957460
950589
943675
936719
929723
922688
915615
908505
901361
894183
886975
879738
872474
865180
857854
850494
843100
835673
828210
820710
813172
805595
797982
790335
782656
774948
767211
759446
751657
743851
736028
728190
720336
712467
704583
696683
688767
680833
672881
664909
656916
648901
640865
632810
624738
616652
608557
600454
592349
584244
576142
568042
559944
551845
543741
535631
527518
519407
511296
503189
495092
487002
478921
470847
462779
454711
446643
438572
430498
422420
414338
406254
398173
390100
382045
374019
366028
358077
350165
342295
334467
326680
318933
311222
303545
295899
288287
280710
273170
265670
258213
250804
243446
236144
228905
221737
214641
207617
200664
193781
186971
180237
173585
167013
160516
1.26631e+06
1.26617e+06
1.26591e+06
1.26553e+06
1.26501e+06
1.26437e+06
1.26359e+06
1.26268e+06
1.26164e+06
1.26046e+06
1.25915e+06
1.2577e+06
1.25612e+06
1.25441e+06
1.25257e+06
1.25059e+06
1.24848e+06
1.24624e+06
1.24387e+06
1.24138e+06
1.23876e+06
1.23602e+06
1.23317e+06
1.23019e+06
1.2271e+06
1.2239e+06
1.22059e+06
1.21717e+06
1.21364e+06
1.21002e+06
1.20629e+06
1.20246e+06
1.19853e+06
1.19451e+06
1.1904e+06
1.1862e+06
1.18192e+06
1.17754e+06
1.17309e+06
1.16854e+06
1.16392e+06
1.1592e+06
1.1544e+06
1.14952e+06
1.14455e+06
1.1395e+06
1.13437e+06
1.12915e+06
1.12386e+06
1.11848e+06
1.11304e+06
1.10752e+06
1.10193e+06
1.09628e+06
1.09056e+06
1.08478e+06
1.07895e+06
1.07306e+06
1.06711e+06
1.06111e+06
1.05506e+06
1.04895e+06
1.04278e+06
1.03656e+06
1.03028e+06
1.02395e+06
1.01756e+06
1.01112e+06
1.00462e+06
998062
991457
984800
978096
971345
964549
957709
950825
943898
936929
929919
922872
915788
908669
901516
894331
887117
879875
872607
865310
857982
850621
843228
835801
828338
820836
813296
805716
798100
790450
782769
775059
767319
759552
751762
743954
736129
728288
720432
712560
704673
696769
688849
680912
672958
664984
656990
648973
640934
632876
624802
616714
608617
600514
592410
584306
576205
568107
560011
551913
543811
535704
527596
519488
511380
503276
495179
487089
479007
470932
462860
454790
446718
438645
430571
422493
414412
406327
398243
390167
382107
374076
366080
358124
350209
342338
334508
326719
318969
311255
303575
295927
288313
280735
273194
265692
258233
250821
243462
236158
228917
221746
214647
207619
200661
193774
186956
180213
173549
166960
160442
1.27073e+06
1.27058e+06
1.2703e+06
1.26989e+06
1.26934e+06
1.26866e+06
1.26783e+06
1.26686e+06
1.26576e+06
1.26451e+06
1.26313e+06
1.26161e+06
1.25995e+06
1.25815e+06
1.25622e+06
1.25415e+06
1.25195e+06
1.24961e+06
1.24715e+06
1.24456e+06
1.24185e+06
1.23901e+06
1.23606e+06
1.23299e+06
1.2298e+06
1.22651e+06
1.2231e+06
1.21959e+06
1.21598e+06
1.21226e+06
1.20845e+06
1.20454e+06
1.20053e+06
1.19644e+06
1.19225e+06
1.18798e+06
1.18363e+06
1.17919e+06
1.17466e+06
1.17006e+06
1.16537e+06
1.1606e+06
1.15575e+06
1.15081e+06
1.14579e+06
1.14069e+06
1.1355e+06
1.13024e+06
1.12489e+06
1.11947e+06
1.11397e+06
1.1084e+06
1.10277e+06
1.09707e+06
1.09132e+06
1.0855e+06
1.07962e+06
1.0737e+06
1.06772e+06
1.06168e+06
1.0556e+06
1.04946e+06
1.04327e+06
1.03702e+06
1.03073e+06
1.02437e+06
1.01797e+06
1.01151e+06
1.00499e+06
998423
991803
985132
978413
971648
964838
957984
951086
944144
937159
930135
923073
915976
908845
901683
894490
887269
880021
872747
865447
858116
850753
843358
835930
828465
820962
813418
805836
798218
790566
782883
775171
767430
759661
751870
744061
736234
728390
720531
712656
704766
696859
688936
680996
673039
665064
657068
649048
641007
632946
624870
616780
608682
600579
592475
584372
576272
568175
560080
551983
543883
535779
527675
519571
511464
503360
495263
487172
479087
471010
462936
454863
446789
438715
430640
422563
414482
406396
398310
390230
382167
374131
366131
358171
350253
342380
334549
326758
319005
311288
303605
295955
288339
280760
273218
265714
258253
250840
243478
236173
228929
221756
214653
207621
200659
193766
186941
180189
173512
166908
160371
1.27576e+06
1.27559e+06
1.27529e+06
1.27485e+06
1.27425e+06
1.27352e+06
1.27263e+06
1.2716e+06
1.27042e+06
1.26909e+06
1.26762e+06
1.26601e+06
1.26425e+06
1.26235e+06
1.26031e+06
1.25814e+06
1.25583e+06
1.25338e+06
1.25081e+06
1.24811e+06
1.24528e+06
1.24234e+06
1.23927e+06
1.23609e+06
1.2328e+06
1.2294e+06
1.22589e+06
1.22228e+06
1.21856e+06
1.21475e+06
1.21084e+06
1.20683e+06
1.20274e+06
1.19856e+06
1.19429e+06
1.18994e+06
1.18551e+06
1.18099e+06
1.1764e+06
1.17172e+06
1.16696e+06
1.16213e+06
1.15721e+06
1.15221e+06
1.14714e+06
1.14197e+06
1.13673e+06
1.13141e+06
1.12601e+06
1.12054e+06
1.11499e+06
1.10937e+06
1.10369e+06
1.09794e+06
1.09214e+06
1.08628e+06
1.08036e+06
1.07439e+06
1.06837e+06
1.0623e+06
1.05619e+06
1.05002e+06
1.0438e+06
1.03753e+06
1.03121e+06
1.02483e+06
1.01841e+06
1.01193e+06
1.0054e+06
998811
992174
985488
978754
971975
965152
958284
951370
944412
937411
930369
923291
916178
909034
901861
894659
887430
880175
872895
865589
858253
850887
843489
836058
828590
821083
813537
805953
798332
790679
782995
775281
767540
759771
751980
744170
736340
728494
720632
712755
704862
696952
689027
681084
673125
665147
657148
649126
641082
633019
624941
616851
608752
600649
592545
584442
576342
568244
560148
552052
543954
535854
527753
519651
511544
503440
495340
487246
479159
471079
463003
454928
446853
438778
430704
422627
414546
406458
398370
390287
382221
374181
366178
358214
350295
342419
334587
326794
319039
311320
303634
295981
288364
280784
273241
265736
258273
250858
243495
236188
228943
221766
214660
207623
200656
193757
186925
180164
173475
166857
160303
1.28142e+06
1.28125e+06
1.28091e+06
1.28043e+06
1.27979e+06
1.27899e+06
1.27803e+06
1.27692e+06
1.27565e+06
1.27422e+06
1.27265e+06
1.27092e+06
1.26905e+06
1.26703e+06
1.26487e+06
1.26257e+06
1.26013e+06
1.25756e+06
1.25486e+06
1.25203e+06
1.24908e+06
1.24601e+06
1.24282e+06
1.23951e+06
1.2361e+06
1.23258e+06
1.22895e+06
1.22522e+06
1.22139e+06
1.21747e+06
1.21345e+06
1.20935e+06
1.20515e+06
1.20087e+06
1.19651e+06
1.19207e+06
1.18755e+06
1.18295e+06
1.17827e+06
1.17351e+06
1.16868e+06
1.16377e+06
1.15878e+06
1.15372e+06
1.14857e+06
1.14335e+06
1.13805e+06
1.13267e+06
1.12721e+06
1.12168e+06
1.11607e+06
1.1104e+06
1.10467e+06
1.09888e+06
1.09302e+06
1.08711e+06
1.08115e+06
1.07514e+06
1.06908e+06
1.06297e+06
1.05682e+06
1.05061e+06
1.04437e+06
1.03807e+06
1.03173e+06
1.02533e+06
1.01888e+06
1.01238e+06
1.00582e+06
999220
992566
985864
979117
972325
965488
958605
951676
944701
937682
930621
923524
916395
909236
902050
894837
887599
880336
873048
865735
858394
851022
843619
836182
828709
821198
813649
806063
798440
790786
783101
775388
767647
759879
752089
744278
736447
728598
720734
712854
704959
697048
689120
681175
673213
665232
657230
649205
641158
633093
625015
616925
608827
600723
592617
584513
576411
568312
560215
552118
544022
535925
527827
519725
511618
503511
495408
487310
479220
471137
463059
454982
446907
438833
430759
422682
414600
406511
398420
390335
382266
374225
366218
358253
350331
342454
334620
326827
319070
311348
303660
296006
288387
280805
273262
265756
258292
250876
243512
236203
228956
221777
214666
207625
200653
193748
186909
180138
173438
166807
160238
1.28779e+06
1.2876e+06
1.28723e+06
1.28669e+06
1.28599e+06
1.28511e+06
1.28407e+06
1.28286e+06
1.28148e+06
1.27994e+06
1.27824e+06
1.27639e+06
1.27438e+06
1.27222e+06
1.26991e+06
1.26747e+06
1.26488e+06
1.26216e+06
1.25931e+06
1.25633e+06
1.25324e+06
1.25002e+06
1.24669e+06
1.24325e+06
1.23969e+06
1.23604e+06
1.23228e+06
1.22842e+06
1.22446e+06
1.22042e+06
1.21628e+06
1.21206e+06
1.20775e+06
1.20336e+06
1.19889e+06
1.19435e+06
1.18973e+06
1.18503e+06
1.18026e+06
1.17542e+06
1.1705e+06
1.16551e+06
1.16044e+06
1.1553e+06
1.15009e+06
1.1448e+06
1.13943e+06
1.13398e+06
1.12846e+06
1.12287e+06
1.11721e+06
1.11149e+06
1.1057e+06
1.09986e+06
1.09395e+06
1.08799e+06
1.08199e+06
1.07593e+06
1.06982e+06
1.06368e+06
1.05749e+06
1.05125e+06
1.04497e+06
1.03865e+06
1.03227e+06
1.02585e+06
1.01937e+06
1.01285e+06
1.00627e+06
999647
992975
986258
979497
972692
965842
958945
952001
945008
937970
930890
923773
916625
909451
902250
895025
887776
880503
873207
865886
858537
851158
843747
836303
828824
821307
813754
806164
798540
790884
783199
775487
767748
759983
752194
744383
736551
728701
720834
712953
705056
697143
689213
681265
673300
665315
657309
649280
641231
633166
625089
617001
608904
600799
592691
584584
576480
568377
560277
552179
544084
535989
527893
519791
511681
503571
495464
487363
479269
471183
463102
455025
446950
438877
430803
422727
414643
406552
398459
390372
382302
374259
366252
358284
350361
342482
334648
326854
319096
311373
303684
296028
288407
280825
273281
265774
258310
250893
243527
236218
228969
221786
214672
207626
200649
193737
186891
180111
173401
166757
160175
1.29494e+06
1.29471e+06
1.2943e+06
1.29371e+06
1.29293e+06
1.29196e+06
1.29081e+06
1.28948e+06
1.28798e+06
1.28629e+06
1.28444e+06
1.28243e+06
1.28025e+06
1.27793e+06
1.27545e+06
1.27283e+06
1.27007e+06
1.26718e+06
1.26416e+06
1.26101e+06
1.25775e+06
1.25437e+06
1.25088e+06
1.24728e+06
1.24357e+06
1.23976e+06
1.23585e+06
1.23185e+06
1.22775e+06
1.22357e+06
1.2193e+06
1.21494e+06
1.21051e+06
1.206e+06
1.20141e+06
1.19676e+06
1.19203e+06
1.18722e+06
1.18235e+06
1.17741e+06
1.17241e+06
1.16733e+06
1.16218e+06
1.15696e+06
1.15166e+06
1.1463e+06
1.14086e+06
1.13534e+06
1.12976e+06
1.12411e+06
1.11839e+06
1.11262e+06
1.10678e+06
1.10088e+06
1.09492e+06
1.08891e+06
1.08286e+06
1.07675e+06
1.07061e+06
1.06442e+06
1.05819e+06
1.05192e+06
1.0456e+06
1.03925e+06
1.03284e+06
1.02639e+06
1.01988e+06
1.01333e+06
1.00673e+06
1.00009e+06
993397
986664
979889
973071
966209
959299
952339
945329
938271
931171
924035
916868
909677
902461
895222
887960
880676
873370
866039
858681
851293
843873
836420
828932
821409
813850
806257
798630
790972
783287
775576
767839
760078
752292
744483
736650
728799
720932
713049
705152
697237
689304
681353
673383
665393
657382
649349
641299
633235
625161
617076
608980
600875
592764
584653
576544
568437
560333
552234
544138
536044
527948
519844
511732
503618
495507
487402
479304
471215
463133
455055
446981
438908
430835
422758
414672
406579
398484
390397
382327
374285
366277
358308
350383
342504
334669
326874
319117
311393
303703
296046
288425
280841
273296
265790
258325
250908
243542
236231
228980
221795
214678
207627
200643
193726
186872
180083
173363
166708
160115
1.30295e+06
1.30269e+06
1.30223e+06
1.30155e+06
1.30068e+06
1.2996e+06
1.29831e+06
1.29683e+06
1.29516e+06
1.29331e+06
1.29127e+06
1.28906e+06
1.28669e+06
1.28416e+06
1.28148e+06
1.27866e+06
1.2757e+06
1.27261e+06
1.26939e+06
1.26605e+06
1.2626e+06
1.25903e+06
1.25536e+06
1.25158e+06
1.2477e+06
1.24372e+06
1.23965e+06
1.23548e+06
1.23123e+06
1.22689e+06
1.22247e+06
1.21798e+06
1.21341e+06
1.20877e+06
1.20406e+06
1.19927e+06
1.19443e+06
1.18951e+06
1.18453e+06
1.17949e+06
1.17438e+06
1.16921e+06