/*--------------------------------*- C++ -*----------------------------------*\
  =========                 |
  \\      /  F ield         | OpenFOAM: The Open Source CFD Toolbox
   \\    /   O peration     | Website:  https://openfoam.org
    \\  /    A nd           | Version:  6
     \\/     M anipulation  |
\*---------------------------------------------------------------------------*/
FoamFile
{
    version     2.0;
    format      ascii;
    class       volScalarField;
    location    "0.25";
    object      s;
}
// * * * * * * * * * * * * * * * * * * * * * * * * * * * * * * * * * * * * * //

dimensions      [0 0 0 0 0 0 0];

internalField   nonuniform List<scalar> 
12225
(
1
1
1
1
1
1
1
1
1
1
1
1
1
1
1
1
1
1
1
1
1
1
1
1
1
1
1
1
1
1
1
1
1
1
1
1
1
1
1
1
1
1
1
1
1
1
1
1
1
1
1
1
1
1
1
1
1
1
1
1
1
1
1
1
1
1
1
1
1
1
1
1
1
1
1
1
1
1
1
1
1
1
1
1
1
1
1
1
1
1
1
1
1
1
1
1
1
1
1
1
1
1
1
1
1
1
1
1
1
1
1
1
1
1
1
1
1
1
1
1
1
1
1
1
1
1
1
1
1
1
1
1
1
1
1
1
1
1
1
1
1
1
1
1
1
1
1
1
1
1
1
1
1
1
1
1
1
1
1
1
1
1
1
1
1
1
1
1
1
1
1
1
1
1
1
1
1
1
1
1
1
1
1
1
1
1
1
1
1
1
1
1
1
1
1
1
1
1
1
1
1
1
1
1
1
1
1
1
1
1
1
1
1
1
1
1
1
1
1
1
1
1
1
1
1
1
1
1
1
1
1
1
1
1
1
1
1
1
1
1
1
1
1
1
1
1
1
1
1
1
1
1
1
1
1
1
1
1
1
1
1
1
1
1
1
1
1
1
1
1
1
1
1
1
1
1
1
1
1
1
1
1
1
1
1
1
1
1
1
1
1
1
1
1
1
1
1
1
1
1
1
1
1
1
1
1
1
1
1
1
1
1
1
1
1
1
1
1
1
1
1
1
1
1
1
1
1
1
1
1
1
1
1
1
1
1
1
1
1
1
1
1
1
1
1
1
1
1
1
1
1
1
1
1
1
1
1
1
1
1
1
1
1
1
1
1
1
1
1
1
1
1
1
1
1
1
1
1
1
1
1
1
1
1
1
1
1
1
1
1
1
1
1
1
1
1
1
1
1
1
1
1
1
1
1
1
1
1
1
1
1
1
1
1
1
1
1
1
1
1
1
1
1
1
1
1
1
1
1
1
1
1
1
1
1
1
1
1
1
1
1
1
1
1
1
1
1
1
1
1
1
1
1
1
1
1
1
1
1
1
1
1
1
1
1
1
1
1
1
1
1
1
1
1
1
1
1
1
1
1
1
1
1
1
1
1
1
1
1
1
1
1
1
1
1
1
1
1
1
1
1
1
1
1
1
1
1
1
1
1
1
1
1
1
1
1
1
1
1
1
1
1
1
1
1
1
1
1
1
1
1
1
1
1
1
1
1
1
1
1
0.964371
0.967495
0.967307
0.967601
0.96903
0.970975
0.971945
0.973785
0.975553
0.977377
0.978996
0.980362
0.981381
0.982078
0.982578
0.982948
0.983275
0.983556
0.98374
0.983825
0.983833
0.983809
0.983732
0.983508
0.983122
0.982699
0.982069
0.981061
0.979938
0.979301
0.979325
0.980869
0.982294
0.970403
0.951146
0.948974
0.948966
0.94988
0.950867
0.951787
0.952312
0.952952
0.953613
0.955483
0.956555
0.95786
0.958608
0.959689
0.960705
0.961329
0.962643
0.965335
0.968046
0.97377
0.980105
0.987313
0.989327
0.988401
0.987847
0.987606
0.987573
0.987577
0.98762
0.987728
0.987914
0.988175
0.988488
0.988812
0.989112
0.989376
0.989616
0.989855
0.990107
0.99037
0.990643
0.990931
0.991241
0.991566
0.991892
0.992202
0.992482
0.992715
0.992894
0.993035
0.993136
0.993185
0.993234
0.993253
0.993261
0.993263
0.993251
0.993207
0.993153
0.993107
0.993052
0.992976
0.992883
0.992781
0.992674
0.992553
0.992405
0.99224
0.992069
0.99188
0.991652
0.991419
0.991159
0.990878
0.990575
0.990257
0.989925
0.98958
0.989219
0.988844
0.988447
0.988032
0.987599
0.987156
0.986727
0.986344
0.986008
0.985695
0.985413
0.985176
0.984999
0.984888
0.984842
0.984843
0.984915
0.985268
0.985591
0.985769
0.98614
0.986526
0.986772
0.987174
0.988414
0.989546
0.989452
0.987781
0.987134
0.987704
0.988485
0.988929
0.98923
0.989434
0.98955
0.989643
0.989802
0.990248
0.991898
0.993962
0.994675
0.994594
0.994573
0.995433
0.995687
0.994892
0.99463
0.994836
0.994951
0.995083
0.995223
0.99535
0.995485
0.995635
0.995785
0.995907
0.996029
0.996124
0.9962
0.99627
0.996315
0.99633
0.996332
0.996303
0.996268
0.996194
0.996132
0.995855
0.961543
0.966979
0.966912
0.965399
0.96213
0.962716
0.964645
0.96898
0.973486
0.976754
0.979105
0.980581
0.981492
0.982123
0.982656
0.983045
0.983392
0.983767
0.984036
0.984484
0.984873
0.985282
0.985777
0.986212
0.986335
0.986309
0.986171
0.985777
0.984836
0.983777
0.981476
0.98123
0.981493
0.980719
0.978779
0.975526
0.964622
0.954695
0.953439
0.953533
0.953712
0.954602
0.954978
0.955493
0.956669
0.959625
0.96568
0.967226
0.969939
0.970728
0.970006
0.970063
0.972159
0.978567
0.987716
0.989004
0.989225
0.988801
0.988738
0.988961
0.989435
0.989857
0.990314
0.990752
0.991189
0.991684
0.992054
0.992396
0.992608
0.992817
0.99294
0.993074
0.99315
0.993258
0.993392
0.993638
0.993987
0.994374
0.994708
0.9949
0.994991
0.99503
0.995036
0.994962
0.99485
0.994812
0.994795
0.994793
0.994814
0.994889
0.994987
0.995062
0.995124
0.995185
0.995254
0.995335
0.995416
0.995481
0.995532
0.995577
0.995627
0.995692
0.995765
0.99583
0.995883
0.995948
0.996008
0.996056
0.996088
0.996104
0.996113
0.99611
0.99609
0.996042
0.99595
0.995793
0.995548
0.995179
0.99464
0.993877
0.992885
0.991727
0.990518
0.989396
0.988421
0.987514
0.986626
0.985858
0.985331
0.985043
0.984949
0.98497
0.985231
0.986074
0.986755
0.987031
0.987233
0.98793
0.988483
0.988316
0.988147
0.988215
0.988549
0.989284
0.989578
0.98957
0.989318
0.989109
0.989111
0.989233
0.989627
0.990622
0.990826
0.99069
0.990817
0.992405
0.994654
0.994621
0.994752
0.995263
0.995648
0.996033
0.99635
0.996654
0.996823
0.996991
0.99709
0.997139
0.997248
0.997319
0.997411
0.997471
0.997565
0.997619
0.99766
0.997685
0.997692
0.997696
0.997691
0.997613
0.954563
0.960037
0.960236
0.960498
0.964362
0.971634
0.976775
0.979651
0.980512
0.980874
0.981048
0.981038
0.980954
0.980738
0.980573
0.980345
0.980197
0.980208
0.980289
0.980498
0.980877
0.981333
0.982138
0.983231
0.984325
0.985248
0.985864
0.986146
0.986151
0.986053
0.985701
0.984726
0.983344
0.98252
0.981987
0.981552
0.980507
0.979385
0.977013
0.968829
0.96361
0.961175
0.960188
0.961203
0.965278
0.976359
0.983003
0.984665
0.985942
0.985681
0.981553
0.979348
0.983158
0.987804
0.989774
0.99024
0.990461
0.991307
0.99177
0.992359
0.992768
0.993028
0.993251
0.993433
0.99363
0.993777
0.993892
0.994007
0.994081
0.994169
0.994238
0.994343
0.994469
0.994684
0.994986
0.995169
0.99522
0.995231
0.995174
0.994947
0.994564
0.99407
0.993514
0.993194
0.993054
0.992969
0.992936
0.99293
0.992952
0.993056
0.993237
0.993444
0.993634
0.993833
0.994067
0.994331
0.994608
0.994872
0.995099
0.995273
0.995414
0.995559
0.995713
0.995846
0.995961
0.996096
0.996224
0.996354
0.99648
0.996605
0.996718
0.996818
0.996919
0.997021
0.997132
0.99725
0.997364
0.997465
0.997536
0.997558
0.997494
0.997197
0.996519
0.99551
0.994305
0.993231
0.992329
0.991459
0.990463
0.989378
0.988458
0.987902
0.987706
0.987686
0.987774
0.988312
0.988869
0.988973
0.988961
0.988832
0.988701
0.9887
0.988735
0.988845
0.989265
0.989958
0.990283
0.9904
0.990449
0.990409
0.990176
0.990075
0.990064
0.990098
0.990483
0.992758
0.994525
0.994607
0.995033
0.995522
0.995879
0.996204
0.996383
0.996493
0.996499
0.99643
0.996363
0.996354
0.996427
0.996548
0.996738
0.996936
0.99717
0.997389
0.99755
0.997661
0.997699
0.997724
0.997732
0.997733
0.950567
0.951397
0.961079
0.975761
0.982105
0.983129
0.982828
0.981977
0.980733
0.979626
0.978979
0.97853
0.978388
0.978363
0.978325
0.978258
0.97819
0.97815
0.978044
0.978003
0.978027
0.978124
0.978364
0.978922
0.979827
0.981136
0.982812
0.984347
0.985305
0.98577
0.985776
0.98567
0.985368
0.984684
0.983953
0.9836
0.983507
0.983526
0.983572
0.983319
0.980994
0.970487
0.964741
0.967606
0.980975
0.986771
0.988048
0.987732
0.986788
0.985984
0.985007
0.986633
0.989177
0.990871
0.991606
0.992072
0.992572
0.993031
0.99333
0.993607
0.993747
0.993812
0.99386
0.993897
0.993939
0.99398
0.994036
0.994127
0.994262
0.994459
0.994679
0.994942
0.995302
0.995472
0.995509
0.99551
0.995417
0.995103
0.994595
0.993762
0.992742
0.992399
0.992293
0.992265
0.992258
0.992258
0.992261
0.99227
0.992291
0.992323
0.992367
0.992422
0.992487
0.992567
0.992671
0.992808
0.992985
0.993204
0.993467
0.993772
0.994083
0.994384
0.9947
0.995011
0.995298
0.995618
0.995918
0.99619
0.99644
0.996659
0.996852
0.997034
0.997165
0.997252
0.997312
0.997403
0.997513
0.997634
0.997763
0.997899
0.99804
0.99814
0.998158
0.998025
0.997369
0.995932
0.994635
0.993882
0.993409
0.992767
0.991721
0.990584
0.989756
0.989215
0.988828
0.988634
0.988601
0.988664
0.988986
0.989221
0.989276
0.989263
0.989179
0.989156
0.989195
0.98938
0.989937
0.990538
0.990915
0.991031
0.990954
0.990524
0.990358
0.99045
0.991157
0.993559
0.994535
0.99461
0.995112
0.995486
0.995662
0.995677
0.9952
0.994725
0.994373
0.994189
0.994119
0.994119
0.99427
0.994442
0.994783
0.995307
0.995909
0.996519
0.996995
0.997357
0.997584
0.997663
0.997671
0.997667
0.948285
0.966005
0.98409
0.985704
0.985099
0.983194
0.979666
0.977076
0.97665
0.9769
0.977436
0.977846
0.978122
0.978281
0.978264
0.978177
0.978076
0.977898
0.977518
0.97718
0.977095
0.977115
0.977207
0.977439
0.978023
0.978786
0.979795
0.980978
0.982238
0.983748
0.984889
0.985351
0.985328
0.985208
0.984945
0.984788
0.984788
0.985044
0.98572
0.985838
0.984484
0.972446
0.968887
0.982076
0.98906
0.988936
0.988178
0.987928
0.987775
0.988245
0.989374
0.990623
0.991719
0.992331
0.992698
0.993068
0.99329
0.993517
0.993663
0.993747
0.993777
0.993789
0.993791
0.993797
0.993818
0.993883
0.994012
0.994215
0.994483
0.994862
0.995408
0.995816
0.99591
0.995921
0.995875
0.995687
0.995261
0.99456
0.993413
0.992557
0.992329
0.992274
0.99227
0.992283
0.9923
0.992315
0.992339
0.99237
0.992406
0.992433
0.992449
0.992465
0.992489
0.992518
0.992558
0.992617
0.992698
0.992804
0.992931
0.993072
0.993236
0.993411
0.993603
0.993811
0.994031
0.994273
0.99458
0.995028
0.995577
0.996178
0.996691
0.997108
0.997462
0.997749
0.997967
0.99806
0.998067
0.998012
0.997962
0.997977
0.998078
0.998228
0.998384
0.998512
0.998542
0.998413
0.997672
0.995963
0.994679
0.993992
0.993689
0.993613
0.99365
0.993832
0.993882
0.993783
0.99309
0.991171
0.990008
0.989604
0.989537
0.989581
0.989672
0.989677
0.989673
0.989718
0.989959
0.990558
0.990984
0.991132
0.991103
0.990811
0.990674
0.99079
0.991791
0.993991
0.994482
0.994625
0.995056
0.995195
0.994769
0.994174
0.993668
0.993429
0.993314
0.993277
0.993321
0.993369
0.99349
0.993609
0.993785
0.994058
0.994606
0.995602
0.996486
0.997138
0.997532
0.997701
0.997719
0.9977
0.967314
0.986768
0.987425
0.985393
0.980397
0.976432
0.975432
0.975545
0.976348
0.978047
0.979397
0.980075
0.9803
0.980107
0.97963
0.978868
0.978279
0.977693
0.97701
0.976533
0.976414
0.976431
0.976536
0.976893
0.977597
0.978211
0.97892
0.979757
0.980708
0.981416
0.982661
0.98386
0.984621
0.984965
0.98505
0.985144
0.985407
0.986203
0.987
0.987172
0.985178
0.969629
0.976084
0.989716
0.989834
0.989267
0.989105
0.989347
0.989891
0.990522
0.991314
0.992119
0.992537
0.992939
0.99318
0.993389
0.993497
0.993636
0.993705
0.993732
0.993733
0.993723
0.993727
0.993753
0.993817
0.993926
0.994138
0.99449
0.995011
0.995756
0.99634
0.996467
0.996478
0.99642
0.996191
0.995694
0.99492
0.993844
0.992843
0.992533
0.992472
0.992484
0.992557
0.992645
0.992705
0.992754
0.992836
0.992943
0.993072
0.993173
0.993213
0.993222
0.993209
0.993163
0.993094
0.993024
0.992978
0.992956
0.992982
0.993052
0.993154
0.993273
0.993403
0.993537
0.993682
0.993826
0.993935
0.994035
0.994184
0.994474
0.995057
0.995913
0.99688
0.997608
0.998106
0.99845
0.998703
0.998874
0.998913
0.998784
0.99853
0.998371
0.998371
0.998507
0.998686
0.998786
0.998773
0.998491
0.997242
0.995581
0.994686
0.99442
0.994462
0.994994
0.996026
0.99649
0.996536
0.996272
0.994688
0.992031
0.990665
0.990196
0.990139
0.990288
0.990828
0.991065
0.991082
0.991118
0.991248
0.991306
0.991268
0.991012
0.990932
0.991091
0.992384
0.994194
0.994417
0.994609
0.994862
0.994386
0.993742
0.993319
0.993089
0.992997
0.992969
0.99299
0.993064
0.993142
0.993268
0.993395
0.993535
0.993687
0.993923
0.994436
0.995618
0.996658
0.997378
0.997756
0.997855
0.997833
0.991463
0.990707
0.9868
0.978113
0.975438
0.974988
0.975449
0.977091
0.980796
0.983635
0.984723
0.984588
0.983442
0.981711
0.980382
0.979233
0.978187
0.977172
0.976484
0.97621
0.976152
0.976179
0.976366
0.977124
0.977934
0.97851
0.979083
0.97959
0.980024
0.980402
0.981146
0.982502
0.98389
0.984789
0.985152
0.985422
0.986058
0.987203
0.988044
0.988096
0.983329
0.965669
0.985598
0.990577
0.990702
0.990494
0.990614
0.991218
0.991511
0.991996
0.992507
0.992857
0.993062
0.993346
0.99353
0.993658
0.993724
0.993788
0.99381
0.993817
0.993831
0.993856
0.993924
0.99405
0.99426
0.994589
0.995059
0.995715
0.996471
0.996974
0.99711
0.997129
0.997062
0.996794
0.99634
0.995763
0.994987
0.993921
0.992985
0.992751
0.992741
0.992815
0.992922
0.992977
0.993023
0.993144
0.99337
0.993684
0.994027
0.994336
0.994559
0.994637
0.994651
0.994608
0.994451
0.994269
0.994059
0.993847
0.993663
0.993509
0.993411
0.993377
0.993416
0.993506
0.99362
0.993741
0.993858
0.993943
0.993986
0.994029
0.994106
0.994305
0.994841
0.996037
0.997283
0.998086
0.998613
0.998965
0.999204
0.999352
0.99939
0.999264
0.998894
0.998673
0.998667
0.99881
0.998959
0.998987
0.998867
0.998139
0.996422
0.995398
0.995117
0.995194
0.995868
0.996774
0.997114
0.997132
0.996881
0.995464
0.992837
0.991319
0.990793
0.99078
0.991185
0.992083
0.992396
0.992388
0.992252
0.991866
0.991403
0.991069
0.991022
0.991213
0.992721
0.994274
0.994386
0.994546
0.994432
0.993647
0.993221
0.99299
0.992869
0.992797
0.992771
0.992794
0.992897
0.993012
0.993159
0.99331
0.993461
0.99361
0.993771
0.994025
0.994693
0.996025
0.997081
0.997727
0.998015
0.998021
0.991284
0.988578
0.97923
0.975738
0.975236
0.976367
0.979395
0.984485
0.987447
0.988214
0.987944
0.986748
0.984035
0.981755
0.980327
0.979248
0.978001
0.976926
0.976344
0.976259
0.976376
0.976963
0.977622
0.978224
0.97869
0.979041
0.979384
0.97972
0.980051
0.980458
0.981319
0.982766
0.984137
0.984995
0.985491
0.986083
0.987253
0.988448
0.989131
0.988201
0.976334
0.968899
0.988369
0.991366
0.991838
0.991996
0.992377
0.992909
0.993257
0.993657
0.994026
0.99418
0.994259
0.994311
0.994337
0.994346
0.994353
0.994367
0.994411
0.994508
0.994677
0.994974
0.995371
0.99585
0.99635
0.996849
0.997245
0.997517
0.997683
0.997731
0.997719
0.997578
0.997349
0.99706
0.996615
0.996016
0.995303
0.994439
0.993599
0.993338
0.993317
0.993332
0.993258
0.993186
0.993209
0.99343
0.993916
0.994611
0.995302
0.995734
0.995968
0.996123
0.996246
0.996327
0.996296
0.996085
0.995718
0.995285
0.994915
0.99455
0.994216
0.993952
0.993765
0.993672
0.993665
0.993731
0.993837
0.993965
0.99404
0.994039
0.994042
0.994075
0.994167
0.994465
0.995408
0.996774
0.997771
0.998503
0.999019
0.999349
0.999535
0.999618
0.999603
0.999375
0.999014
0.998905
0.998954
0.999108
0.999152
0.999083
0.998589
0.997087
0.996089
0.995824
0.9959
0.996469
0.997019
0.997141
0.997067
0.99647
0.994288
0.992238
0.991305
0.991131
0.991304
0.99222
0.992996
0.993172
0.993124
0.99274
0.991721
0.991195
0.991119
0.991331
0.992957
0.994289
0.994317
0.994392
0.993966
0.993242
0.992941
0.992814
0.992628
0.992503
0.992449
0.992474
0.992595
0.992794
0.993008
0.993226
0.993421
0.99359
0.993743
0.993936
0.994311
0.99542
0.996702
0.997602
0.998082
0.998207
0.990689
0.984813
0.976902
0.975765
0.977657
0.982706
0.987632
0.989177
0.989483
0.989233
0.988534
0.98669
0.983454
0.980969
0.98004
0.979467
0.978161
0.977211
0.977091
0.977638
0.978455
0.978811
0.979038
0.979406
0.979651
0.979893
0.980112
0.980383
0.980772
0.981414
0.982509
0.983868
0.984997
0.985793
0.986605
0.987816
0.988932
0.989734
0.989628
0.986063
0.968566
0.973833
0.989674
0.992058
0.992749
0.993254
0.994088
0.994539
0.994967
0.995324
0.995609
0.995713
0.995821
0.995948
0.995997
0.996016
0.996053
0.996115
0.996235
0.996426
0.996639
0.99688
0.997127
0.997353
0.997535
0.997678
0.997774
0.99782
0.997834
0.997827
0.997765
0.99763
0.997438
0.997215
0.996912
0.996522
0.996063
0.995558
0.995058
0.994644
0.994315
0.993844
0.993399
0.99333
0.993486
0.99403
0.995005
0.995836
0.996085
0.996187
0.996299
0.996447
0.99662
0.996827
0.997037
0.997217
0.997319
0.997168
0.996628
0.9959
0.995257
0.994756
0.994408
0.99415
0.993974
0.99388
0.993875
0.993977
0.99413
0.994205
0.994189
0.994122
0.994116
0.994184
0.994434
0.995217
0.996402
0.997454
0.998321
0.998973
0.999402
0.999633
0.999728
0.999736
0.99962
0.999277
0.999125
0.999134
0.999247
0.999293
0.999238
0.998818
0.997552
0.99674
0.99653
0.99659
0.996918
0.99707
0.997034
0.996632
0.994876
0.992721
0.991609
0.991316
0.991395
0.992118
0.993131
0.993486
0.993489
0.993186
0.992066
0.991349
0.991231
0.991454
0.993117
0.994278
0.99425
0.99417
0.993564
0.993
0.992784
0.992571
0.992265
0.99204
0.991947
0.99199
0.992167
0.992423
0.992728
0.993049
0.993346
0.993579
0.993742
0.993921
0.994202
0.994927
0.996331
0.997431
0.998074
0.998324
0.989966
0.980484
0.976357
0.978231
0.984771
0.989123
0.989976
0.989926
0.989716
0.989192
0.988018
0.985271
0.981633
0.980305
0.979988
0.979774
0.979168
0.979083
0.979303
0.98022
0.981012
0.98155
0.982057
0.982481
0.982683
0.982852
0.983136
0.983573
0.984207
0.984998
0.985857
0.986623
0.987307
0.9881
0.988946
0.989718
0.990131
0.990176
0.989104
0.981153
0.965751
0.977688
0.990254
0.992416
0.993242
0.993921
0.994857
0.995627
0.996185
0.996556
0.996781
0.996871
0.996982
0.997085
0.997121
0.997146
0.997166
0.997173
0.997182
0.997193
0.997212
0.99725
0.997302
0.997341
0.997355
0.997293
0.997182
0.997056
0.996946
0.996891
0.996858
0.996831
0.996795
0.996694
0.996525
0.996269
0.995929
0.995507
0.995021
0.994472
0.993779
0.993352
0.993305
0.993415
0.993864
0.99493
0.995979
0.996145
0.996142
0.996063
0.995988
0.995973
0.996081
0.99636
0.99675
0.997192
0.997586
0.997884
0.998077
0.997983
0.997347
0.996326
0.995368
0.994762
0.99439
0.994183
0.994072
0.99405
0.994127
0.994243
0.994284
0.994276
0.994204
0.994169
0.994211
0.994441
0.995167
0.996232
0.997304
0.998242
0.998964
0.999443
0.999698
0.999794
0.999804
0.999721
0.999438
0.999301
0.999301
0.999385
0.999421
0.999369
0.998981
0.997979
0.997409
0.997252
0.997255
0.997265
0.997214
0.996837
0.995204
0.993017
0.991824
0.991463
0.991504
0.99211
0.993189
0.993606
0.993624
0.993329
0.992191
0.991456
0.991337
0.99157
0.993217
0.994244
0.99418
0.994006
0.99336
0.992872
0.992682
0.992205
0.991784
0.991552
0.991468
0.991574
0.991765
0.992041
0.992378
0.992767
0.993188
0.993547
0.99378
0.993932
0.994181
0.994688
0.996025
0.997283
0.998052
0.998373
0.988861
0.978694
0.976678
0.983766
0.989572
0.990332
0.990204
0.989781
0.989161
0.988241
0.986412
0.982713
0.980533
0.980317
0.980659
0.981039
0.981098
0.981167
0.981851
0.983199
0.984222
0.984836
0.985627
0.986031
0.986499
0.987086
0.987355
0.987875
0.988233
0.98857
0.988955
0.989315
0.989694
0.990061
0.990358
0.990498
0.990427
0.989854
0.986757
0.97185
0.965006
0.979605
0.990232
0.992406
0.993287
0.994026
0.994907
0.995864
0.996604
0.997096
0.997348
0.997457
0.997562
0.997602
0.997606
0.997576
0.997499
0.997393
0.997289
0.997188
0.997071
0.996886
0.99657
0.996007
0.995382
0.994804
0.994345
0.994023
0.993834
0.993747
0.993721
0.993731
0.993799
0.993845
0.993856
0.993833
0.993745
0.993572
0.993311
0.993071
0.993051
0.993366
0.993767
0.99415
0.994879
0.996016
0.996257
0.996126
0.995699
0.99497
0.994434
0.994138
0.993979
0.994091
0.99458
0.995456
0.996568
0.997468
0.998133
0.99852
0.998712
0.998626
0.997904
0.996601
0.995448
0.994733
0.994355
0.994204
0.994183
0.994237
0.994289
0.9943
0.994283
0.994201
0.994142
0.994149
0.994318
0.994969
0.996129
0.997304
0.998301
0.999039
0.999512
0.999756
0.99984
0.999846
0.999766
0.999534
0.999438
0.999442
0.999515
0.999539
0.999488
0.999136
0.998411
0.998021
0.997886
0.997829
0.997719
0.997345
0.995837
0.993507
0.992145
0.991684
0.991691
0.992196
0.993295
0.993718
0.993726
0.993379
0.992203
0.991528
0.991431
0.991679
0.993282
0.994216
0.994133
0.993877
0.993247
0.992793
0.992474
0.991801
0.991363
0.99117
0.991128
0.991205
0.991382
0.991675
0.992036
0.992454
0.992949
0.993455
0.993823
0.994001
0.994195
0.994618
0.99577
0.997171
0.998043
0.998408
0.9874
0.978229
0.978901
0.988096
0.990364
0.990409
0.989816
0.988708
0.987992
0.987012
0.98438
0.981131
0.980472
0.980657
0.981739
0.982868
0.983259
0.983525
0.984153
0.985137
0.985922
0.986429
0.987093
0.987827
0.988372
0.988843
0.989391
0.989735
0.989937
0.990226
0.990389
0.990508
0.990593
0.99063
0.990633
0.990458
0.98988
0.987656
0.979327
0.966436
0.964696
0.980706
0.990015
0.992281
0.993225
0.99397
0.994797
0.995792
0.996594
0.997148
0.997459
0.997597
0.997705
0.997732
0.99772
0.997641
0.997501
0.99732
0.997066
0.996656
0.995933
0.995122
0.99435
0.9938
0.99348
0.993304
0.993237
0.993313
0.993457
0.993627
0.993753
0.993808
0.993848
0.993903
0.993974
0.994035
0.994072
0.994083
0.994121
0.994362
0.994654
0.994717
0.994766
0.994977
0.995736
0.996411
0.996282
0.99569
0.994647
0.994145
0.993845
0.993533
0.993215
0.992942
0.992762
0.99283
0.993444
0.994921
0.996742
0.998011
0.998722
0.999047
0.999159
0.998972
0.998031
0.996524
0.995344
0.994672
0.994369
0.994278
0.994274
0.994279
0.994274
0.994235
0.99409
0.993981
0.993975
0.994084
0.994613
0.996013
0.997414
0.998465
0.999178
0.999606
0.999811
0.999875
0.999873
0.999785
0.999607
0.99955
0.999561
0.999629
0.999646
0.999601
0.999311
0.998843
0.998616
0.998521
0.998396
0.998071
0.99686
0.994366
0.992735
0.992101
0.992057
0.992451
0.993514
0.993914
0.993896
0.993438
0.992209
0.991604
0.99153
0.991781
0.993303
0.994195
0.994116
0.993782
0.993144
0.992726
0.992228
0.991496
0.991058
0.990867
0.990801
0.990792
0.990902
0.99122
0.991672
0.992154
0.992698
0.993313
0.993823
0.994102
0.99427
0.994615
0.995585
0.997085
0.998064
0.998476
0.986131
0.978217
0.981362
0.989176
0.990473
0.990236
0.989022
0.987932
0.98736
0.98605
0.9829
0.980805
0.980602
0.981358
0.983206
0.98412
0.984451
0.984736
0.985269
0.985895
0.986315
0.986722
0.987403
0.988085
0.988592
0.9892
0.989791
0.990082
0.990304
0.990438
0.990487
0.990502
0.990486
0.9903
0.989781
0.988533
0.985589
0.978818
0.967777
0.963478
0.965229
0.980411
0.989422
0.991973
0.993038
0.993793
0.994418
0.995477
0.99641
0.997046
0.997397
0.99755
0.997674
0.99771
0.997697
0.997586
0.997316
0.996797
0.995974
0.995026
0.994223
0.993639
0.993258
0.993057
0.992976
0.99297
0.993102
0.993302
0.993571
0.993888
0.994248
0.994557
0.994933
0.995267
0.99554
0.995649
0.995712
0.995731
0.995691
0.995526
0.995288
0.994998
0.994892
0.99509
0.995971
0.996556
0.996099
0.994955
0.99439
0.994195
0.994101
0.993949
0.993567
0.993036
0.992604
0.992354
0.992228
0.992423
0.993378
0.995653
0.997632
0.998731
0.999233
0.999422
0.999428
0.999062
0.99776
0.996162
0.995132
0.994593
0.994363
0.99428
0.994245
0.994191
0.994049
0.993916
0.993874
0.993884
0.993993
0.9945
0.996104
0.997667
0.998706
0.99935
0.999705
0.999861
0.999902
0.999893
0.999795
0.999673
0.999644
0.999664
0.999728
0.99974
0.999706
0.999507
0.999258
0.999139
0.999022
0.99876
0.997883
0.995464
0.993561
0.992738
0.992622
0.992908
0.993832
0.994185
0.994136
0.993526
0.992271
0.99174
0.991684
0.991903
0.993288
0.994175
0.994116
0.993688
0.993037
0.992696
0.992104
0.991276
0.990824
0.990622
0.990464
0.990329
0.990351
0.990698
0.991293
0.991866
0.992474
0.993179
0.993812
0.994187
0.994377
0.994667
0.995494
0.997034
0.998093
0.99855
0.98558
0.978499
0.98237
0.989621
0.990523
0.99004
0.988631
0.98754
0.986785
0.984857
0.981924
0.981135
0.981215
0.9822
0.98399
0.984853
0.985193
0.985473
0.985957
0.986457
0.986741
0.987083
0.987577
0.988048
0.988526
0.988969
0.98915
0.989207
0.989219
0.989189
0.989009
0.988522
0.987537
0.985708
0.982375
0.976658
0.968601
0.964175
0.962521
0.964306
0.970209
0.980322
0.988478
0.991277
0.992649
0.993535
0.993936
0.994585
0.99566
0.996611
0.99704
0.997206
0.99735
0.997457
0.997471
0.997313
0.996741
0.995571
0.994563
0.993801
0.993279
0.992938
0.992771
0.992706
0.992728
0.99282
0.992974
0.993238
0.993634
0.994225
0.994785
0.995365
0.995946
0.996321
0.996478
0.996496
0.996442
0.996219
0.995722
0.995076
0.994558
0.994411
0.994494
0.995014
0.996318
0.996614
0.995754
0.994768
0.994646
0.995107
0.995537
0.995669
0.995341
0.994435
0.99324
0.992497
0.992146
0.992026
0.992105
0.992701
0.994952
0.997315
0.998675
0.999335
0.999586
0.99965
0.999534
0.998847
0.997183
0.995756
0.994924
0.994509
0.994325
0.994178
0.99402
0.993904
0.993858
0.993857
0.993895
0.994076
0.994792
0.996621
0.998076
0.998994
0.999524
0.999795
0.999901
0.999924
0.999907
0.999811
0.999736
0.999726
0.999753
0.999808
0.999817
0.999797
0.99969
0.999585
0.999491
0.999296
0.998696
0.996652
0.994504
0.993481
0.993267
0.993441
0.994169
0.994471
0.994406
0.993712
0.992476
0.991969
0.991907
0.992069
0.993237
0.994148
0.994119
0.993691
0.99303
0.992675
0.991948
0.991106
0.990677
0.990425
0.990194
0.990055
0.990059
0.990255
0.99091
0.991609
0.992274
0.993051
0.993813
0.99428
0.994497
0.994759
0.995472
0.997016
0.998109
0.998587
0.985029
0.978882
0.983906
0.990073
0.990609
0.989732
0.987975
0.986682
0.985439
0.982877
0.981371
0.981202
0.981481
0.982577
0.984127
0.984975
0.985388
0.985898
0.986182
0.986305
0.986354
0.986368
0.986339
0.986137
0.985749
0.985189
0.984393
0.983395
0.982157
0.980638
0.97874
0.976297
0.973087
0.968954
0.964209
0.961664
0.960791
0.960667
0.963397
0.973785
0.977007
0.981016
0.987561
0.990306
0.991687
0.993092
0.993629
0.994009
0.994527
0.995259
0.995754
0.995927
0.996027
0.996174
0.996337
0.996268
0.995597
0.994695
0.993785
0.993112
0.992742
0.992538
0.992437
0.992399
0.992415
0.992495
0.992667
0.993101
0.993884
0.994743
0.995341
0.995748
0.996121
0.996397
0.996495
0.996479
0.996265
0.995278
0.994177
0.993695
0.993597
0.993687
0.994129
0.995463
0.996634
0.99668
0.995643
0.994912
0.9953
0.996048
0.996252
0.996327
0.996302
0.996045
0.994923
0.993318
0.992393
0.992024
0.991957
0.992035
0.992613
0.99496
0.997297
0.998698
0.999409
0.999694
0.999778
0.99975
0.999447
0.998256
0.996575
0.995454
0.994795
0.994391
0.994128
0.99397
0.9939
0.993889
0.993907
0.99402
0.994429
0.995732
0.997386
0.998569
0.999288
0.999681
0.999866
0.999931
0.99994
0.999916
0.999836
0.999797
0.999796
0.999827
0.99987
0.999879
0.999872
0.999842
0.999785
0.999666
0.999311
0.997903
0.995571
0.994276
0.993908
0.993979
0.994511
0.994781
0.994704
0.993987
0.992751
0.992218
0.99213
0.992235
0.993148
0.994119
0.994133
0.993723
0.993049
0.992689
0.991943
0.991077
0.990572
0.990271
0.990045
0.989955
0.989962
0.990087
0.990594
0.991397
0.992118
0.992959
0.99381
0.994374
0.994625
0.994871
0.995487
0.997011
0.998146
0.998624
0.984281
0.979595
0.98635
0.990686
0.99067
0.988907
0.98648
0.984844
0.983032
0.981739
0.981474
0.981479
0.982015
0.983203
0.984492
0.985283
0.985796
0.986241
0.986408
0.986489
0.986587
0.986698
0.98674
0.986746
0.986738
0.986674
0.986453
0.985628
0.984594
0.982953
0.980822
0.978083
0.974677
0.97082
0.966942
0.963651
0.962089
0.961522
0.967306
0.979638
0.983015
0.983151
0.986403
0.98915
0.990194
0.991851
0.993018
0.993562
0.993996
0.994409
0.994739
0.994801
0.994792
0.994721
0.994611
0.994565
0.994321
0.993862
0.993276
0.992777
0.9925
0.992353
0.992283
0.992261
0.992265
0.992306
0.992461
0.993019
0.994067
0.994882
0.995386
0.995704
0.995922
0.995983
0.995853
0.995047
0.993865
0.993218
0.99299
0.992964
0.993033
0.993312
0.994331
0.996145
0.996875
0.996798
0.995817
0.995269
0.995679
0.996173
0.99631
0.996392
0.99647
0.996432
0.995992
0.994413
0.99299
0.992211
0.99197
0.991964
0.992106
0.992959
0.995547
0.997602
0.998847
0.999499
0.999775
0.999862
0.999864
0.99974
0.999154
0.997628
0.996193
0.995234
0.99464
0.994294
0.994122
0.99407
0.994073
0.994128
0.9944
0.995394
0.996965
0.998201
0.999041
0.999542
0.999803
0.999918
0.999953
0.999953
0.999925
0.999871
0.999853
0.999856
0.999886
0.999917
0.999925
0.999923
0.999912
0.999867
0.999696
0.998983
0.996834
0.995166
0.994543
0.994513
0.994845
0.995122
0.995052
0.994333
0.993015
0.99242
0.992292
0.992354
0.993029
0.994078
0.994154
0.9938
0.993104
0.992733
0.991976
0.991109
0.990566
0.990197
0.989985
0.989922
0.98993
0.990025
0.990446
0.991288
0.99203
0.992913
0.993828
0.994468
0.994753
0.99499
0.99555
0.997044
0.99821
0.998685
0.983996
0.980375
0.987512
0.991097
0.990655
0.988131
0.98522
0.983537
0.982621
0.982217
0.982143
0.982475
0.983392
0.984655
0.985849
0.986828
0.987874
0.989001
0.990152
0.991558
0.992851
0.994076
0.995199
0.995848
0.996264
0.996419
0.996418
0.996423
0.99646
0.996542
0.996645
0.996728
0.996569
0.995754
0.993826
0.989885
0.982887
0.974336
0.967262
0.973802
0.983483
0.985578
0.986533
0.988248
0.989208
0.990141
0.991407
0.992495
0.99323
0.993752
0.994159
0.994325
0.99431
0.994223
0.994016
0.993776
0.993571
0.993314
0.993001
0.992709
0.992486
0.992342
0.992266
0.992244
0.992246
0.992277
0.992425
0.993047
0.994101
0.99486
0.995329
0.995514
0.995514
0.995279
0.994481
0.993629
0.993057
0.992809
0.992786
0.992834
0.993035
0.993615
0.995192
0.996595
0.997068
0.997006
0.996193
0.995662
0.995742
0.996063
0.99618
0.996304
0.996508
0.996562
0.996345
0.994931
0.993265
0.992477
0.992099
0.992007
0.992054
0.992395
0.994025
0.99653
0.998154
0.999111
0.999616
0.999841
0.999918
0.999929
0.999885
0.99964
0.998661
0.997072
0.995909
0.995167
0.994725
0.99452
0.994479
0.994505
0.994662
0.995332
0.996827
0.998047
0.998899
0.999433
0.999737
0.99989
0.999952
0.999968
0.999964
0.999937
0.999907
0.999901
0.999906
0.999931
0.999949
0.999953
0.999952
0.99994
0.999874
0.999568
0.998233
0.996218
0.99523
0.995036
0.995187
0.995468
0.99543
0.99483
0.99336
0.99263
0.992439
0.992466
0.992909
0.994015
0.994178
0.993918
0.99323
0.992839
0.992062
0.991194
0.990601
0.990208
0.989991
0.989924
0.989928
0.990008
0.990386
0.991243
0.991998
0.992896
0.993883
0.994578
0.994885
0.995112
0.99564
0.997102
0.998274
0.998734
0.983955
0.980707
0.987779
0.991521
0.991268
0.988616
0.985901
0.984784
0.984247
0.984127
0.984596
0.985786
0.987065
0.988679
0.990064
0.991587
0.99316
0.994362
0.995043
0.995775
0.996188
0.996394
0.996476
0.996486
0.996395
0.996303
0.996208
0.996099
0.996051
0.996101
0.996565
0.997171
0.997999
0.998694
0.999079
0.99924
0.998944
0.99724
0.988025
0.972746
0.973894
0.98393
0.98642
0.987935
0.988903
0.989463
0.990134
0.990931
0.991706
0.992409
0.993016
0.993503
0.993792
0.993866
0.993788
0.993603
0.993371
0.993161
0.992956
0.992728
0.992523
0.992375
0.99229
0.992268
0.992273
0.992313
0.992494
0.993224
0.994199
0.994878
0.995196
0.995225
0.994997
0.994071
0.993176
0.992682
0.992535
0.992563
0.992782
0.993254
0.994104
0.995536
0.996694
0.997318
0.997444
0.997369
0.996811
0.996092
0.995948
0.995976
0.996061
0.996204
0.996531
0.996684
0.996533
0.995129
0.993338
0.992595
0.992307
0.992197
0.992182
0.992347
0.993259
0.995712
0.997633
0.998781
0.999416
0.999746
0.999898
0.999952
0.999962
0.999943
0.99982
0.999288
0.997946