/*--------------------------------*- C++ -*----------------------------------*\
  =========                 |
  \\      /  F ield         | OpenFOAM: The Open Source CFD Toolbox
   \\    /   O peration     | Website:  https://openfoam.org
    \\  /    A nd           | Version:  6
     \\/     M anipulation  |
\*---------------------------------------------------------------------------*/
FoamFile
{
    version     2.0;
    format      ascii;
    class       volScalarField;
    location    "0.25";
    object      s_0;
}
// * * * * * * * * * * * * * * * * * * * * * * * * * * * * * * * * * * * * * //

dimensions      [0 0 0 0 0 0 0];

internalField   nonuniform List<scalar> 
12225
(
1
1
1
1
1
1
1
1
1
1
1
1
1
1
1
1
1
1
1
1
1
1
1
1
1
1
1
1
1
1
1
1
1
1
1
1
1
1
1
1
1
1
1
1
1
1
1
1
1
1
1
1
1
1
1
1
1
1
1
1
1
1
1
1
1
1
1
1
1
1
1
1
1
1
1
1
1
1
1
1
1
1
1
1
1
1
1
1
1
1
1
1
1
1
1
1
1
1
1
1
1
1
1
1
1
1
1
1
1
1
1
1
1
1
1
1
1
1
1
1
1
1
1
1
1
1
1
1
1
1
1
1
1
1
1
1
1
1
1
1
1
1
1
1
1
1
1
1
1
1
1
1
1
1
1
1
1
1
1
1
1
1
1
1
1
1
1
1
1
1
1
1
1
1
1
1
1
1
1
1
1
1
1
1
1
1
1
1
1
1
1
1
1
1
1
1
1
1
1
1
1
1
1
1
1
1
1
1
1
1
1
1
1
1
1
1
1
1
1
1
1
1
1
1
1
1
1
1
1
1
1
1
1
1
1
1
1
1
1
1
1
1
1
1
1
1
1
1
1
1
1
1
1
1
1
1
1
1
1
1
1
1
1
1
1
1
1
1
1
1
1
1
1
1
1
1
1
1
1
1
1
1
1
1
1
1
1
1
1
1
1
1
1
1
1
1
1
1
1
1
1
1
1
1
1
1
1
1
1
1
1
1
1
1
1
1
1
1
1
1
1
1
1
1
1
1
1
1
1
1
1
1
1
1
1
1
1
1
1
1
1
1
1
1
1
1
1
1
1
1
1
1
1
1
1
1
1
1
1
1
1
1
1
1
1
1
1
1
1
1
1
1
1
1
1
1
1
1
1
1
1
1
1
1
1
1
1
1
1
1
1
1
1
1
1
1
1
1
1
1
1
1
1
1
1
1
1
1
1
1
1
1
1
1
1
1
1
1
1
1
1
1
1
1
1
1
1
1
1
1
1
1
1
1
1
1
1
1
1
1
1
1
1
1
1
1
1
1
1
1
1
1
1
1
1
1
1
1
1
1
1
1
1
1
1
1
1
1
1
1
1
1
1
1
1
1
1
1
1
1
1
1
1
1
1
1
1
1
1
1
1
1
1
1
1
1
1
1
1
1
1
1
1
1
1
1
1
1
1
1
1
1
1
1
1
1
1
1
1
1
1
1
1
1
1
1
1
1
1
1
1
1
1
1
1
1
1
1
1
1
0.964358
0.967496
0.967306
0.967592
0.969009
0.970958
0.971945
0.973792
0.975561
0.97739
0.979014
0.980386
0.981406
0.9821
0.982598
0.982966
0.983293
0.98357
0.983748
0.983827
0.983832
0.983805
0.983721
0.983483
0.983094
0.982666
0.982024
0.981009
0.979902
0.97929
0.979326
0.980895
0.982305
0.970515
0.951178
0.948974
0.948962
0.949869
0.950857
0.95178
0.952308
0.952949
0.95362
0.95551
0.956582
0.957883
0.958622
0.959723
0.960736
0.961362
0.962707
0.965401
0.968119
0.973871
0.98021
0.987374
0.989337
0.988409
0.987857
0.987608
0.987573
0.987576
0.987616
0.987718
0.987898
0.988153
0.988462
0.988785
0.989087
0.989352
0.989593
0.98983
0.99008
0.990342
0.990613
0.990898
0.991203
0.991526
0.991851
0.992162
0.992447
0.992686
0.992871
0.993016
0.993122
0.993173
0.993223
0.993244
0.993253
0.993255
0.993244
0.993201
0.993146
0.993099
0.993045
0.992969
0.992875
0.992772
0.992665
0.992543
0.992396
0.99223
0.992058
0.991869
0.99164
0.991407
0.991146
0.990865
0.990562
0.990244
0.989911
0.989565
0.989204
0.988828
0.988431
0.988014
0.987581
0.987139
0.986711
0.986331
0.985996
0.985684
0.985404
0.985169
0.984994
0.984885
0.984841
0.984842
0.984919
0.985279
0.985597
0.985776
0.98615
0.986534
0.98678
0.987188
0.988448
0.989559
0.989448
0.987753
0.987131
0.98771
0.988488
0.988931
0.989232
0.989435
0.989551
0.989644
0.989804
0.990255
0.991917
0.993974
0.994677
0.994594
0.99458
0.99545
0.995688
0.994883
0.994629
0.994835
0.994949
0.99508
0.995218
0.995345
0.995479
0.995629
0.995779
0.9959
0.996022
0.996117
0.996192
0.996262
0.996308
0.996323
0.996325
0.996295
0.99626
0.996186
0.996125
0.995848
0.961518
0.966976
0.96691
0.965394
0.962118
0.9627
0.964635
0.968972
0.973495
0.976789
0.979158
0.980636
0.981545
0.982175
0.982707
0.983093
0.983442
0.983813
0.984084
0.984534
0.984916
0.985326
0.985825
0.986245
0.986354
0.986324
0.986179
0.985767
0.984817
0.983738
0.981455
0.981232
0.981499
0.980736
0.9788
0.975517
0.964554
0.954666
0.953402
0.953497
0.953675
0.954569
0.954948
0.955471
0.956665
0.95969
0.965686
0.967272
0.970046
0.970807
0.970081
0.970169
0.972351
0.978774
0.987755
0.98902
0.989239
0.98882
0.988759
0.988976
0.989447
0.989865
0.990317
0.990751
0.991181
0.991674
0.992047
0.992392
0.992607
0.992818
0.992943
0.993079
0.993155
0.993261
0.993388
0.993622
0.993961
0.994347
0.99469
0.994894
0.994992
0.995034
0.995043
0.994979
0.994863
0.994824
0.994806
0.994803
0.994821
0.994892
0.994988
0.995064
0.995127
0.995187
0.995255
0.995335
0.995415
0.99548
0.995532
0.995576
0.995625
0.99569
0.995763
0.995828
0.995881
0.995945
0.996005
0.996052
0.996084
0.9961
0.996109
0.996106
0.996085
0.996036
0.995942
0.995782
0.995533
0.995159
0.994612
0.993841
0.992842
0.991682
0.990474
0.989358
0.988389
0.987483
0.986598
0.985837
0.985317
0.985037
0.984948
0.984972
0.985245
0.986099
0.986768
0.987037
0.98724
0.987946
0.988485
0.988313
0.98815
0.98822
0.988564
0.989296
0.989581
0.98957
0.989312
0.989107
0.989111
0.989236
0.989636
0.990629
0.990824
0.990689
0.990823
0.992443
0.994668
0.994619
0.994751
0.995261
0.995646
0.996029
0.996345
0.99665
0.996819
0.996987
0.997087
0.997137
0.997247
0.997319
0.997412
0.997472
0.997566
0.99762
0.997661
0.997685
0.997692
0.997696
0.99769
0.997611
0.954541
0.960011
0.960224
0.960466
0.964301
0.97156
0.976721
0.979643
0.980534
0.980905
0.981078
0.98108
0.980996
0.98078
0.980613
0.980381
0.980237
0.98025
0.980335
0.980551
0.980931
0.981397
0.982217
0.983309
0.984388
0.985296
0.985896
0.98616
0.986161
0.986056
0.985695
0.984704
0.983329
0.982518
0.981999
0.981566
0.980526
0.97938
0.976926
0.968599
0.963398
0.961015
0.960107
0.961152
0.965307
0.976515
0.983062
0.984707
0.985989
0.985705
0.98152
0.979489
0.983308
0.98786
0.989803
0.990269
0.990491
0.991336
0.991796
0.992375
0.992781
0.99304
0.993259
0.993437
0.99363
0.993777
0.99389
0.994005
0.99408
0.994168
0.994235
0.994339
0.99446
0.994665
0.994962
0.995168
0.995225
0.995238
0.995194
0.994988
0.994619
0.994137
0.993579
0.99323
0.993081
0.99299
0.992953
0.992945
0.992963
0.993061
0.993242
0.993452
0.993645
0.993844
0.994076
0.99434
0.994617
0.994882
0.995108
0.995279
0.995419
0.995563
0.995715
0.995848
0.995962
0.996097
0.996224
0.996354
0.996479
0.996604
0.996716
0.996815
0.996917
0.997019
0.997132
0.99725
0.997364
0.997464
0.997535
0.997556
0.997486
0.997178
0.996487
0.995467
0.994261
0.993195
0.992298
0.991427
0.990429
0.989346
0.988435
0.987892
0.987703
0.987686
0.98778
0.988332
0.988878
0.988977
0.988962
0.988829
0.988701
0.988701
0.988737
0.988851
0.989283
0.989973
0.990291
0.990404
0.990452
0.990408
0.990171
0.990074
0.990063
0.990099
0.990494
0.992799
0.994534
0.994605
0.995032
0.995517
0.995873
0.996198
0.996377
0.99649
0.996497
0.996432
0.996367
0.996362
0.996438
0.996561
0.99675
0.996948
0.997179
0.997396
0.997554
0.997664
0.9977
0.997725
0.997733
0.997734
0.95056
0.951385
0.961029
0.975695
0.982086
0.983143
0.982844
0.98201
0.980771
0.979663
0.97901
0.978545
0.978396
0.978365
0.978325
0.978257
0.97819
0.978151
0.978046
0.978011
0.978038
0.97814
0.978391
0.978968
0.979886
0.981204
0.982874
0.984382
0.985325
0.985775
0.985777
0.985665
0.985358
0.984669
0.983953
0.983617
0.983531
0.983547
0.983584
0.983297
0.980828
0.970168
0.964592
0.967529
0.981027
0.986805
0.988061
0.987724
0.986797
0.986011
0.985091
0.986736
0.989231
0.9909
0.991627
0.992091
0.992586
0.993038
0.993335
0.993608
0.99375
0.993816
0.993862
0.993898
0.993938
0.993977
0.994031
0.994118
0.994248
0.994443
0.994662
0.994919
0.995277
0.995472
0.995515
0.995519
0.995442
0.995149
0.99466
0.993872
0.992814
0.99242
0.9923
0.992267
0.992258
0.992257
0.992259
0.992268
0.992287
0.992318
0.992362
0.992417
0.992482
0.992562
0.992668
0.992806
0.992984
0.993207
0.993474
0.993784
0.994097
0.994398
0.994714
0.995025
0.995312
0.995629
0.995926
0.996196
0.996444
0.996661
0.996853
0.997033
0.997161
0.997247
0.997307
0.997401
0.997512
0.997633
0.997764
0.997901
0.998042
0.998141
0.998156
0.998013
0.997328
0.995881
0.994597
0.993859
0.993389
0.992739
0.991686
0.990554
0.989736
0.989202
0.98882
0.98863
0.988601
0.988668
0.988997
0.989227
0.989278
0.989263
0.989177
0.989156
0.989197
0.989389
0.989956
0.990553
0.990923
0.991033
0.99095
0.990516
0.990358
0.990453
0.991177
0.993592
0.994539
0.994608
0.995108
0.995479
0.995652
0.995665
0.995187
0.994717
0.99437
0.99419
0.994123
0.994125
0.994278
0.994455
0.994801
0.995328
0.995927
0.996533
0.997005
0.997363
0.997587
0.997663
0.997671
0.997667
0.948276
0.965976
0.984093
0.985727
0.985125
0.983221
0.979692
0.977092
0.976657
0.976909
0.977433
0.977834
0.978105
0.978263
0.978247
0.978163
0.978065
0.977887
0.977503
0.977175
0.977098
0.97712
0.977216
0.977457
0.978058
0.978822
0.979832
0.981011
0.98226
0.983762
0.984894
0.985348
0.985324
0.985202
0.984948
0.9848
0.984805
0.985083
0.985747
0.985844
0.98441
0.972191
0.968748
0.982057
0.989072
0.988937
0.988185
0.987941
0.987799
0.988292
0.989418
0.990662
0.991738
0.992344
0.992706
0.993074
0.993292
0.993515
0.993661
0.993745
0.993776
0.993788
0.993789
0.993793
0.993812
0.993873
0.993998
0.994196
0.994459
0.994828
0.995364
0.995808
0.995916
0.995931
0.995894
0.995721
0.995316
0.994646
0.993535
0.992598
0.992341
0.992275
0.992269
0.992279
0.992294
0.992309
0.99233
0.99236
0.992394
0.992421
0.992438
0.992454
0.992478
0.992508
0.992549
0.992608
0.992691
0.992797
0.992925
0.993068
0.993235
0.993412
0.993607
0.993817
0.994038
0.994283
0.994596
0.995047
0.995598
0.996198
0.996703
0.997116
0.997467
0.997751
0.997965
0.998054
0.998058
0.998002
0.997954
0.997974
0.998078
0.99823
0.998387
0.998514
0.99854
0.998402
0.997623
0.995907
0.994644
0.993974
0.993682
0.993611
0.993653
0.993839
0.993884
0.993778
0.993051
0.991121
0.989988
0.989598
0.989537
0.989585
0.989674
0.989678
0.989674
0.989722
0.989972
0.990575
0.990992
0.991135
0.991102
0.990805
0.990674
0.990794
0.991822
0.994013
0.994481
0.994623
0.99505
0.995182
0.994748
0.994158
0.99366
0.993425
0.993311
0.993275
0.993321
0.99337
0.993491
0.993611
0.99379
0.994067
0.994628
0.995627
0.996503
0.997149
0.997536
0.997701
0.997717
0.997698
0.967294
0.986764
0.987441
0.985425
0.980443
0.97643
0.975413
0.975531
0.976338
0.978008
0.979335
0.980002
0.980211
0.98003
0.979566
0.978823
0.978254
0.977671
0.976992
0.976526
0.976415
0.976434
0.976544
0.976918
0.977624
0.978236
0.978946
0.979782
0.980721
0.98142
0.982663
0.983855
0.984618
0.984965
0.985056
0.985158
0.985437
0.986251
0.987028
0.987182
0.985108
0.969472
0.97603
0.989699
0.989842
0.989281
0.98912
0.989369
0.989911
0.990542
0.991324
0.992127
0.99254
0.992941
0.993183
0.993391
0.993498
0.993634
0.993704
0.993731
0.993733
0.993722
0.993725
0.993749
0.99381
0.993915
0.99412
0.994463
0.994973
0.995703
0.996331
0.996476
0.996491
0.996441
0.99623
0.995756
0.995005
0.993956
0.992898
0.992546
0.992474
0.99248
0.992547
0.992634
0.992694
0.99274
0.992817
0.992919
0.993043
0.993143
0.993183
0.993192
0.993181
0.993136
0.99307
0.993003
0.992961
0.992942
0.992971
0.993043
0.993149
0.99327
0.993401
0.993537
0.993683
0.993828
0.993937
0.994038
0.994191
0.994488
0.995083
0.995945
0.996907
0.997624
0.998115
0.998456
0.998706
0.998873
0.998906
0.998769
0.998516
0.998363
0.998368
0.998512
0.99869
0.998787
0.99877
0.998471
0.99718
0.995536
0.994666
0.994415
0.994465
0.995027
0.99605
0.996498
0.996537
0.996256
0.994611
0.991974
0.990639
0.990189
0.990139
0.990299
0.990845
0.991072
0.991088
0.991124
0.991254
0.991308
0.991267
0.991007
0.990932
0.991097
0.992418
0.994209
0.994415
0.994606
0.994852
0.994363
0.993728
0.993311
0.993085
0.992994
0.992966
0.992988
0.993063
0.993141
0.993267
0.993395
0.993535
0.993688
0.993928
0.994456
0.995647
0.996679
0.997389
0.997759
0.997853
0.99783
0.991464
0.990715
0.986823
0.978116
0.975411
0.974959
0.975411
0.977041
0.980707
0.983517
0.984591
0.984456
0.98334
0.981653
0.98034
0.979196
0.978159
0.977155
0.976474
0.976205
0.97615
0.97618
0.976374
0.977148
0.977955
0.978529
0.9791
0.979599
0.980027
0.980406
0.981156
0.982522
0.983912
0.984804
0.985165
0.985444
0.986104
0.987248
0.988071
0.988102
0.983224
0.965577
0.985517
0.990574
0.99072
0.990518
0.990631
0.991241
0.991543
0.992023
0.992534
0.992882
0.99308
0.993357
0.993542
0.993668
0.993733
0.993794
0.993816
0.993823
0.993836
0.993862
0.99393
0.994055
0.994264
0.994591
0.995055
0.9957
0.996442
0.996972
0.997119
0.997142
0.997084
0.996831
0.996389
0.995823
0.995067
0.994025
0.993032
0.99276
0.992741
0.992807
0.992913
0.992969
0.993013
0.993126
0.99334
0.993643
0.993979
0.994278
0.994501
0.99458
0.994594
0.994552
0.994404
0.994227
0.994021
0.993815
0.993637
0.993489
0.993397
0.993368
0.993411
0.993504
0.993619
0.993741
0.993859
0.993943
0.993986
0.994029
0.994109
0.994314
0.994868
0.996078
0.997313
0.998106
0.998626
0.998973
0.999209
0.999354
0.999386
0.99925
0.998877
0.998666
0.998665
0.998815
0.998962
0.998986
0.998857
0.998091
0.996372
0.995376
0.995113
0.995199
0.995901
0.996793
0.99712
0.997132
0.996866
0.995387
0.992774
0.991289
0.990786
0.990782
0.991212
0.992103
0.992404
0.992392
0.992251
0.991859
0.991394
0.991066
0.991022
0.99122
0.992758
0.994286
0.994384
0.994541
0.994415
0.993631
0.993211
0.992986
0.992866
0.992794
0.992768
0.992792
0.992895
0.993011
0.993158
0.99331
0.993461
0.993609
0.993771
0.994031
0.99472
0.996053
0.9971
0.997736
0.998014
0.998018
0.991294
0.988611
0.979244
0.975701
0.975187
0.976287
0.97925
0.984352
0.987381
0.988162
0.987891
0.986686
0.98397
0.981719
0.980306
0.979225
0.977982
0.976913
0.976337
0.976254
0.976372
0.976965
0.977627
0.978232
0.978698
0.979049
0.979391
0.979725
0.980055
0.980466
0.981339
0.982794
0.984163
0.985015
0.985514
0.986124
0.987305
0.988487
0.98915
0.988193
0.976223
0.96878
0.988308
0.991358
0.99185
0.992018
0.992404
0.992939
0.993296
0.993695
0.994072
0.994229
0.994312
0.994364
0.994389
0.994393
0.994396
0.994407
0.994451
0.994551
0.994723
0.995019
0.995412
0.995885
0.996378
0.996869
0.997257
0.997521
0.997689
0.99774
0.997732
0.997597
0.997373
0.997092
0.99666
0.996074
0.995371
0.994523
0.993653
0.993352
0.993319
0.99333
0.99326
0.993182
0.993199
0.993403
0.993869
0.994543
0.995238
0.995691
0.995938
0.996095
0.996215
0.996291
0.996244
0.996019
0.99565
0.995229
0.994869
0.994514
0.994189
0.993932
0.993751
0.993663
0.993661
0.99373
0.993838
0.993966
0.994038
0.994037
0.994041
0.994076
0.994171
0.994479
0.995449
0.996811
0.9978
0.998525
0.999033
0.999357
0.999539
0.999618
0.999599
0.999358
0.999002
0.998902
0.998956
0.999111
0.999152
0.999078
0.998556
0.997037
0.996069
0.99582
0.995905
0.996492
0.997029
0.997142
0.997062
0.996435
0.994208
0.992192
0.991289
0.991129
0.991315
0.992253
0.993011
0.993177
0.993124
0.992725
0.991702
0.991189
0.991119
0.99134
0.992994
0.994298
0.994314
0.994381
0.993948
0.993231
0.992934
0.992809
0.992623
0.992498
0.992444
0.992472
0.992593
0.992794
0.993008
0.993227
0.99342
0.993589
0.993742
0.993938
0.994322
0.995452
0.996728
0.997617
0.998088
0.998205
0.990708
0.9849
0.976893
0.975708
0.977543
0.982505
0.987539
0.989145
0.989471
0.989222
0.988516
0.986657
0.983436
0.980969
0.980036
0.97946
0.978155
0.977202
0.977077
0.97762
0.978442
0.978806
0.979039
0.97941
0.979658
0.979901
0.980123
0.980397
0.98079
0.981441
0.982546
0.983904
0.985029
0.985827
0.986656
0.98787
0.988969
0.989755
0.989637
0.986066
0.968473
0.973688
0.989622
0.992045
0.992749
0.993257
0.994102
0.994566
0.995002
0.995361
0.995654
0.99576
0.995868
0.996
0.996052
0.996075
0.996116
0.996178
0.996294
0.996476
0.996677
0.996906
0.997144
0.997363
0.997541
0.997681
0.997775
0.997822
0.997836
0.99783
0.997772
0.997643
0.997454
0.997234
0.996937
0.996553
0.996099
0.995596
0.995092
0.994666
0.994331
0.993868
0.993406
0.993325
0.993468
0.993987
0.994937
0.995802
0.996075
0.996184
0.996299
0.99645
0.996623
0.99683
0.997038
0.997213
0.997296
0.997111
0.996548
0.995823
0.995202
0.994715
0.994382
0.994132
0.993963
0.993874
0.993872
0.993979
0.994132
0.994204
0.994185
0.994119
0.994116
0.994187
0.994446
0.995253
0.99644
0.997488
0.998349
0.998992
0.999413
0.999638
0.999729
0.999735
0.999609
0.999264
0.999121
0.999134
0.999251
0.999293
0.999233
0.99879
0.997512
0.996724
0.996528
0.996594
0.996928
0.997073
0.997031
0.996607
0.994802
0.992671
0.991589
0.991312
0.991401
0.992151
0.993151
0.993492
0.993491
0.993172
0.992039
0.991341
0.991231
0.991464
0.993154
0.994285
0.994246
0.994159
0.993549
0.992993
0.99278
0.992563
0.992256
0.992033
0.991941
0.991986
0.992165
0.992424
0.992731
0.993052
0.993348
0.993578
0.993741
0.993922
0.994207
0.994956
0.99636
0.99745
0.998083
0.998326
0.989999
0.980555
0.976333
0.978104
0.984543
0.989063
0.989964
0.989928
0.989719
0.989196
0.988027
0.985294
0.981663
0.980307
0.979986
0.979775
0.979158
0.979067
0.979278
0.980189
0.98099
0.981537
0.982053
0.982489
0.982705
0.982883
0.983174
0.983619
0.984259
0.985052
0.985909
0.986671
0.987354
0.988147
0.988982
0.989743
0.99015
0.990186
0.989117
0.981174
0.965665
0.977531
0.990203
0.992394
0.99323
0.993908
0.994842
0.995626
0.996197
0.996576
0.996809
0.996901
0.997012
0.997117
0.997153
0.997177
0.997197
0.997199
0.997204
0.997209
0.997222
0.997255
0.997301
0.997338
0.997344
0.997276
0.997157
0.997026
0.996912
0.996855
0.996824
0.996802
0.996774
0.996681
0.996521
0.996273
0.99594
0.995522
0.995036
0.994486
0.993799
0.993354
0.993301
0.993402
0.993834
0.994872
0.995955
0.996145
0.996148
0.996083
0.996021
0.99602
0.996134
0.996408
0.996794
0.997223
0.997604
0.99789
0.99807
0.997934
0.99725
0.996223
0.995301
0.994718
0.994365
0.994169
0.994065
0.994047
0.99413
0.994245
0.994285
0.994275
0.9942
0.994169
0.994214
0.994455
0.995203
0.996272
0.997342
0.998274
0.998987
0.999456
0.999704
0.999796
0.999804
0.999713
0.999427
0.999298
0.999301
0.999388
0.999421
0.999364
0.998956
0.997951
0.997398
0.99725
0.997255
0.997265
0.997211
0.996815
0.995133
0.992967
0.991801
0.991459
0.991508
0.992143
0.993211
0.993612
0.993625
0.993313
0.992161
0.991447
0.991337
0.991581
0.993253
0.994251
0.994175
0.993996
0.993348
0.992867
0.992676
0.992192
0.991773
0.991544
0.991461
0.99157
0.991765
0.992043
0.992383
0.992774
0.993194
0.993549
0.993777
0.993931
0.994184
0.994704
0.996058
0.997305
0.998063
0.998376
0.988913
0.978704
0.97662
0.983552
0.989526
0.990328
0.99021
0.989799
0.989185
0.988271
0.986464
0.98279
0.980542
0.980312
0.980639
0.981027
0.981086
0.981147
0.981807
0.983147
0.984187
0.984808
0.985607
0.986024
0.986491
0.98709
0.987368
0.987891
0.988257
0.988595
0.98898
0.989339
0.989717
0.990079
0.990371
0.990508
0.990436
0.989867
0.986789
0.971857
0.964928
0.979462
0.990183
0.992382
0.993271
0.994008
0.994883
0.995843
0.996592
0.997094
0.997356
0.997467
0.997574
0.997616
0.99762
0.997589
0.997511
0.997404
0.997297
0.997193
0.997067
0.996868
0.996535
0.995954
0.995327
0.994752
0.994295
0.993977
0.993793
0.993707
0.993682
0.993691
0.993758
0.993807
0.993821
0.993802
0.993721
0.993556
0.993305
0.993068
0.993044
0.993351
0.993748
0.994125
0.994842
0.995994
0.996257
0.996138
0.995738
0.995028
0.994491
0.994199
0.994048
0.994189
0.994698
0.995589
0.996668
0.997537
0.998165
0.998533
0.998709
0.998587
0.997794
0.996485
0.995374
0.99469
0.994334
0.994195
0.99418
0.994239
0.99429
0.994301
0.994282
0.994198
0.994142
0.994153
0.994336
0.995014
0.996181
0.997349
0.998335
0.999062
0.999525
0.999761
0.999842
0.999845
0.999759
0.999526
0.999436
0.999442
0.999517
0.999539
0.999484
0.999115
0.998394
0.998013
0.997883
0.997827
0.997714
0.997324
0.995767
0.993452
0.992119
0.991679
0.991693
0.992227
0.993318
0.993725
0.993727
0.99336
0.992173
0.99152
0.991432
0.991691
0.993318
0.994223
0.994129
0.993866
0.993236
0.992787
0.992462
0.991786
0.991352
0.991162
0.991122
0.991202
0.991383
0.99168
0.992044
0.992463
0.992959
0.993461
0.993824
0.993998
0.994197
0.994627
0.995804
0.997197
0.998056
0.998411
0.987462
0.978225
0.978788
0.988017
0.990357
0.990413
0.989841
0.988743
0.988024
0.98706
0.98448
0.981171
0.980469
0.980633
0.981685
0.982839
0.983242
0.983503
0.984111
0.985089
0.985885
0.986395
0.987051
0.98779
0.988344
0.988817
0.989372
0.989729
0.989934
0.990226
0.990393
0.990513
0.990598
0.990635
0.990638
0.990467
0.989893
0.98768
0.979357
0.966402
0.964638
0.980602
0.989967
0.992254
0.993207
0.993952
0.99477
0.995766
0.996576
0.997136
0.997455
0.997596
0.997706
0.997735
0.997724
0.997647
0.997508
0.997321
0.997058
0.996628
0.995882
0.995066
0.9943
0.993767
0.993454
0.993284
0.99322
0.993301
0.993448
0.99362
0.993753
0.993809
0.993849
0.993904
0.993976
0.994038
0.994076
0.994087
0.994122
0.994357
0.994645
0.994711
0.994763
0.994973
0.995725
0.996408
0.99629
0.99572
0.994679
0.994159
0.993852
0.993536
0.993216
0.992948
0.992782
0.992884
0.993578
0.995102
0.996882
0.99809
0.998754
0.999057
0.999152
0.998926
0.99791
0.996407
0.995275
0.994636
0.994354
0.994274
0.994273
0.994279
0.994274
0.994232
0.994086
0.993981
0.993978
0.994097
0.994661
0.996085
0.997467
0.998501
0.999201
0.999618
0.999816
0.999876
0.999873
0.999777
0.999602
0.999548
0.999562
0.999631
0.999646
0.999597
0.999295
0.998832
0.998612
0.998517
0.99839
0.998055
0.996795
0.994305
0.992703
0.992093
0.992059
0.992478
0.993539
0.99392
0.993897
0.993414
0.992183
0.991598
0.991531
0.991793
0.993338
0.994202
0.994112
0.993767
0.993131
0.992719
0.992215
0.991482
0.991048
0.99086
0.990796
0.99079
0.990906
0.991229
0.991683
0.992166
0.99271
0.993322
0.993826
0.994099
0.994269
0.994623
0.995618
0.997113
0.998078
0.99848
0.986171
0.978209
0.981275
0.989138
0.990471
0.990248
0.989052
0.987958
0.987389
0.986118
0.983014
0.980821
0.980586
0.981296
0.983126
0.984094
0.984436
0.984714
0.985233
0.985861
0.986286
0.986681
0.987348
0.988035
0.988544
0.98915
0.989755
0.990062
0.99029
0.990432
0.990486
0.990502
0.990489
0.990309
0.989797
0.988557
0.985622
0.978849
0.967789
0.963453
0.965219
0.980358
0.989375
0.991944
0.993018
0.993775
0.994386
0.995439
0.996382
0.997027
0.997386
0.997541
0.997669
0.997708
0.997697
0.997585
0.997308
0.996765
0.995921
0.99497
0.994183
0.993607
0.993237
0.993042
0.992965
0.992961
0.993095
0.993297
0.993567
0.993888
0.994251
0.994564
0.994945
0.995281
0.995555
0.99566
0.995719
0.995734
0.99569
0.995524
0.995287
0.994998
0.994894
0.995094
0.99597
0.996557
0.996111
0.994975
0.994396
0.99419
0.99408
0.993908
0.993525
0.993005
0.992591
0.992353
0.99224
0.992477
0.993547
0.995867
0.997753
0.998788
0.999253
0.999426
0.999416
0.998998
0.997628
0.996061
0.995076
0.994567
0.994353
0.994276
0.994243
0.994188
0.994044
0.993913
0.993874
0.993885
0.994003
0.994544
0.996188
0.997721
0.99874
0.999369
0.999715
0.999865
0.999903
0.999892
0.999789
0.99967
0.999643
0.999665
0.999729
0.99974
0.999704
0.999498
0.999252
0.999135
0.999017
0.998747
0.997837
0.995392
0.993523
0.992727
0.992624
0.992929
0.993856
0.994191
0.994134
0.993496
0.992251
0.991737
0.991687
0.991915
0.993322
0.994183
0.994113
0.993672
0.993025
0.992688
0.992089
0.991261
0.990815
0.990614
0.990458
0.990327
0.990355
0.99071
0.991306
0.99188
0.992488
0.993192
0.993817
0.994185
0.994374
0.994671
0.995523
0.997064
0.998109
0.998555
0.985611
0.97848
0.982287
0.989594
0.990522
0.990057
0.988661
0.98757
0.986832
0.984968
0.981994
0.981134
0.981188
0.982119
0.983896
0.984819
0.985173
0.985448
0.985919
0.986424
0.986713
0.987043
0.987529
0.987999
0.988474
0.988932
0.989131
0.989196
0.98921
0.989187
0.989022
0.988557
0.987599
0.985807
0.982516
0.976818
0.968688
0.964176
0.962492
0.964305
0.970307
0.980333
0.988453
0.991244
0.992623
0.993519
0.993917
0.994545
0.995604
0.99657
0.997007
0.997173
0.997316
0.99743
0.997448
0.997292
0.996703
0.995531
0.994521
0.993764
0.993251
0.992919
0.992756
0.992694
0.992719
0.992814
0.99297
0.993235
0.993635
0.99423
0.994792
0.995374
0.995955
0.996328
0.996481
0.996498
0.996441
0.996213
0.995714
0.99507
0.994558
0.994415
0.994502
0.995025
0.996326
0.996615
0.995758
0.99477
0.994639
0.995076
0.995491
0.995614
0.995259
0.994329
0.993171
0.992466
0.992137
0.992027
0.992128
0.992808
0.995189
0.997457
0.998747
0.999364
0.999594
0.999648
0.999509
0.998746
0.997058
0.995677
0.994882
0.994489
0.994316
0.994171
0.994014
0.993901
0.993857
0.993857
0.993897
0.994089
0.994848
0.996697
0.998125
0.999023
0.99954
0.999802
0.999904
0.999924
0.999905
0.999806
0.999735
0.999726
0.999754
0.999809
0.999817
0.999795
0.999685
0.999582
0.999487
0.999286
0.998665
0.996579
0.99446
0.993466
0.993268
0.993455
0.994191
0.994477
0.994404
0.993683
0.992459
0.991967
0.99191
0.99208
0.993269
0.994158
0.994118
0.993674
0.993019
0.992665
0.991931
0.991093
0.990668
0.990417
0.990188
0.990054
0.990061
0.990264
0.990928
0.991625
0.992291
0.993067
0.993821
0.99428
0.994495
0.994762
0.995498
0.997046
0.998126
0.998593
0.98507
0.97885
0.983781
0.990044
0.99061
0.989768
0.988029
0.986735
0.985518
0.982988
0.981389
0.981195
0.981442
0.982491
0.984035
0.984926
0.98535
0.985863
0.986165
0.986294
0.986345
0.98636
0.986338
0.986153
0.985783
0.985245
0.984474
0.983498
0.982279
0.980783
0.978912
0.9765
0.97332
0.969193
0.964387
0.96171
0.960791
0.960644
0.963302
0.973761
0.977072
0.981075
0.987554
0.990279
0.991643
0.99307
0.993612
0.993989
0.994493
0.995202
0.99569
0.995857
0.995949
0.996084
0.996242
0.996178
0.995531
0.99465
0.993752
0.993086
0.992724
0.992525
0.992428
0.992392
0.99241
0.992491
0.992666
0.993109
0.993899
0.994757
0.995352
0.995757
0.996128
0.996401
0.996496
0.996479
0.996255
0.99525
0.994164
0.993695
0.993603
0.993698
0.994146
0.995489
0.996646
0.996681
0.995626
0.994911
0.995299
0.996043
0.996248
0.996321
0.996285
0.995999
0.994804
0.993237
0.992355
0.992015
0.991956
0.99205
0.992712
0.995186
0.997435
0.998773
0.999442
0.999705
0.99978
0.999741
0.999401
0.998131
0.996472
0.995394
0.994761
0.994371
0.994117
0.993963
0.993897
0.993888
0.993907
0.994027
0.994456
0.995802
0.997445
0.998608
0.99931
0.999692
0.999871
0.999933
0.99994
0.999914
0.999833
0.999796
0.999796
0.999829
0.999871
0.999879
0.999871
0.99984
0.999783
0.99966
0.999293
0.997839
0.99552
0.994255
0.993907
0.993988
0.99453
0.994787
0.994702
0.993958
0.992733
0.992215
0.992132
0.992242
0.993177
0.99413
0.994134
0.993707
0.993038
0.992678
0.991925
0.991063
0.990562
0.990263
0.990041
0.989954
0.989963
0.990092
0.990613
0.991416
0.992137
0.992977
0.993822
0.994376
0.994623
0.994873
0.995509
0.997045
0.998163
0.998629
0.984322
0.979538
0.986187
0.990666
0.99069
0.988991
0.986577
0.984929
0.983122
0.981765
0.981477
0.981469
0.981969
0.983125
0.984414
0.985231
0.985753
0.986226
0.986403
0.986486
0.986582
0.986698
0.986749
0.98676
0.986754
0.986698
0.986476
0.985646
0.984599
0.982946
0.98078
0.977996
0.974529
0.970601
0.966686
0.963438
0.961923
0.961371
0.967203
0.979647
0.983038
0.9832
0.986432
0.989138
0.990167
0.991806
0.992993
0.993542
0.993974
0.994381
0.994705
0.994764
0.99475
0.994671
0.994549
0.994496
0.994259
0.993815
0.993246
0.99276
0.99249
0.992346
0.992278
0.992258
0.992263
0.992307
0.992468
0.993046
0.994096
0.994903
0.995399
0.995712
0.995924
0.99598
0.99584
0.995007
0.993837
0.993207
0.992988
0.992965
0.993037
0.993324
0.994373
0.996178
0.996885
0.996794
0.995789
0.995266
0.995694
0.99618
0.996313
0.996395
0.996466
0.996417
0.995931
0.994308
0.992924
0.99218
0.991962
0.991962
0.992125
0.993098
0.995735
0.997718
0.998912
0.999529
0.999785
0.999864
0.999861
0.99972
0.999073
0.997512
0.996113
0.995184
0.994609
0.994277
0.994113
0.994065
0.994069
0.994129
0.994417
0.995452
0.997021
0.998242
0.999067
0.999556
0.99981
0.999921
0.999953
0.999953
0.999923
0.999869
0.999853
0.999856
0.999888
0.999917
0.999925
0.999923
0.999911
0.999865
0.999687
0.998946
0.996772
0.995136
0.994538
0.994516
0.99486
0.995128
0.995051
0.994303
0.992996
0.992414
0.992293
0.992359
0.993056
0.994091
0.994157
0.993786
0.993095
0.992723
0.991959
0.991095
0.990556
0.99019
0.989982
0.989921
0.989931
0.990029
0.990464
0.991307
0.99205
0.992934
0.993842
0.994472
0.994751
0.994991
0.995569
0.997079
0.998228
0.99869
0.984027
0.980296
0.98735
0.991091
0.990705
0.988248
0.985335
0.983615
0.982669
0.982243
0.982157
0.982468
0.983361
0.98461
0.985815
0.98681
0.987875
0.989035
0.990179
0.991575
0.992865
0.994073
0.995206
0.995857
0.996266
0.996419
0.996419
0.996423
0.996458
0.996538
0.996633
0.99671
0.996521
0.995662
0.993651
0.989541
0.982415
0.973861
0.96702
0.973804
0.983544
0.98561
0.986561
0.988255
0.989206
0.990121
0.991366
0.992455
0.993196
0.99372
0.994127
0.994294
0.994283
0.994195
0.993987
0.993742
0.993537
0.993285
0.992982
0.992698
0.992479
0.992337
0.992264
0.992243
0.992246
0.99228
0.992438
0.993092
0.994141
0.994886
0.995341
0.995516
0.99551
0.995256
0.994442
0.993602
0.993044
0.992806
0.992786
0.992836
0.993041
0.993634
0.995237
0.996624
0.997076
0.997001
0.996155
0.995655
0.995751
0.996077
0.996191
0.996317
0.996511
0.996554
0.996303
0.994818
0.993205
0.992435
0.992077
0.991997
0.992055
0.992436
0.994222
0.996673
0.998241
0.999159
0.99964
0.99985
0.99992
0.999928
0.999877
0.999606
0.998553
0.996975
0.995845
0.995125
0.9947
0.994506
0.994471
0.9945
0.994667
0.995379
0.99688
0.998088
0.998926
0.999449
0.999746
0.999894
0.999954
0.999968
0.999964
0.999935
0.999906
0.9999
0.999906
0.999932
0.999949
0.999953
0.999952
0.999939
0.999871
0.999552
0.998175
0.996179
0.995217
0.995037
0.995199
0.995474
0.995431
0.994804
0.993336
0.992623
0.992439
0.99247
0.992931
0.994031
0.994182
0.993908
0.993221
0.992829
0.992045
0.99118
0.99059
0.9902
0.989987
0.989923
0.989928
0.990011
0.990403
0.991263
0.992019
0.992918
0.9939
0.994584
0.994884
0.995115
0.995658
0.997137
0.998292
0.99874
0.983984
0.980638
0.987612
0.991513
0.991323
0.988763
0.986006
0.984866
0.984314
0.984186
0.984653
0.985846
0.987115
0.988731
0.990122
0.991631
0.99319
0.994395
0.99507
0.995781
0.996197
0.996401
0.996484
0.996495
0.996407
0.996317
0.996226
0.996119
0.996072
0.996126
0.996587
0.997198
0.998028
0.998704
0.999077
0.999236
0.998902
0.997105
0.9875
0.972348
0.973875
0.984006
0.986458
0.987957
0.988914
0.989469
0.990127
0.99091
0.991673
0.992369
0.992973
0.993463
0.993757
0.993838
0.993762
0.993579
0.993352
0.993145
0.992944
0.992719
0.992517
0.992371
0.992289
0.992269
0.992275
0.992319
0.992515
0.993284
0.994245
0.994903
0.995203
0.995224
0.994971
0.994018
0.993145
0.992668
0.992532
0.992565
0.992791
0.993261
0.994112
0.995545
0.9967
0.997322
0.997443
0.997362
0.996767
0.99607
0.995944
0.99598
0.996067
0.996218
0.996541
0.996673
0.996493
0.995015
0.993276
0.992566
0.992279
0.992172
0.992164
0.99236
0.993373
0.995878
0.997736
0.998838
0.999446
0.999761
0.999904
0.999954
0.999962
0.999939