/*--------------------------------*- C++ -*----------------------------------*\
  =========                 |
  \\      /  F ield         | OpenFOAM: The Open Source CFD Toolbox
   \\    /   O peration     | Website:  https://openfoam.org
    \\  /    A nd           | Version:  6
     \\/     M anipulation  |
\*---------------------------------------------------------------------------*/
FoamFile
{
    version     2.0;
    format      ascii;
    class       volSymmTensorField;
    location    "0.25";
    object      UPrime2Mean;
}
// * * * * * * * * * * * * * * * * * * * * * * * * * * * * * * * * * * * * * //

dimensions      [0 2 -2 0 0 0 0];

internalField   nonuniform List<symmTensor> 
12225
(
(0.0244934 4.99714e-05 0 0.00373873 0 0)
(0.0142699 -2.49397e-05 0 0.00212462 0 0)
(0.0129992 -8.62236e-05 0 0.00153437 0 0)
(0.0136936 -0.000150877 0 0.00117836 0 0)
(0.0149451 -0.000205989 0 0.000937584 0 0)
(0.017457 -0.000254136 0 0.000764671 0 0)
(0.0222782 -0.000399576 0 0.000641542 0 0)
(0.0297524 -0.000523388 0 0.000541279 0 0)
(0.0414215 -0.00100147 0 0.000487272 0 0)
(0.0565751 -0.00100869 0 0.000411159 0 0)
(0.0809129 -0.00259328 0 0.000445172 0 0)
(0.109858 -0.00178139 0 0.00036772 0 0)
(0.16376 -0.0072706 0 0.000661421 0 0)
(0.222568 -0.00307625 0 0.000596664 0 0)
(0.355097 -0.0227612 0 0.00214249 0 0)
(0.493537 -0.00608465 0 0.00246141 0 0)
(0.8779 -0.0842906 0 0.0123279 0 0)
(1.35235 -0.010505 0 0.00818901 0 0)
(0.0268141 0.000438587 0 0.0033433 0 0)
(0.0174224 0.000454102 0 0.00165928 0 0)
(0.0145201 0.000356325 0 0.00116135 0 0)
(0.0131113 0.000284948 0 0.000938144 0 0)
(0.0121445 0.000229248 0 0.00081267 0 0)
(0.0117541 0.000122188 0 0.00073569 0 0)
(0.0120901 -7.34658e-05 0 0.000681748 0 0)
(0.0133264 -0.00042197 0 0.000673144 0 0)
(0.0156997 -0.000859164 0 0.000661788 0 0)
(0.0198503 -0.00166008 0 0.000756839 0 0)
(0.0263035 -0.00254278 0 0.000815192 0 0)
(0.0371469 -0.00457463 0 0.0011489 0 0)
(0.0531534 -0.00669965 0 0.00141379 0 0)
(0.0811448 -0.012274 0 0.00246253 0 0)
(0.121412 -0.0186905 0 0.00364383 0 0)
(0.199813 -0.0357531 0 0.00732015 0 0)
(0.308473 -0.0623866 0 0.0137551 0 0)
(0.543658 -0.128738 0 0.034688 0 0)
(0.0273791 0.00041522 0 0.00394951 0 0)
(0.0177648 0.000635139 0 0.00207903 0 0)
(0.0149614 0.000379664 0 0.00141264 0 0)
(0.013732 0.000137598 0 0.00112949 0 0)
(0.0129429 -2.29024e-05 0 0.00098496 0 0)
(0.0126647 -0.000162564 0 0.000911807 0 0)
(0.0129859 -0.000369622 0 0.000891803 0 0)
(0.0139707 -0.000705418 0 0.000910525 0 0)
(0.0157656 -0.00124587 0 0.00100008 0 0)
(0.0186362 -0.00202862 0 0.00115512 0 0)
(0.0229917 -0.00328389 0 0.0014705 0 0)
(0.0295104 -0.0051186 0 0.00196242 0 0)
(0.0391829 -0.00820593 0 0.00292053 0 0)
(0.0536144 -0.0129339 0 0.00450795 0 0)
(0.0753808 -0.021168 0 0.00776793 0 0)
(0.107649 -0.0354465 0 0.0141209 0 0)
(0.155223 -0.0613926 0 0.0282506 0 0)
(0.210376 -0.115973 0 0.0734592 0 0)
(0.0267118 0.000462645 0 0.0047154 0 0)
(0.0167549 0.000327333 0 0.00263817 0 0)
(0.0139234 4.9999e-05 0 0.00184729 0 0)
(0.012812 -0.000145642 0 0.00151836 0 0)
(0.0121117 -0.000295679 0 0.00136031 0 0)
(0.0118352 -0.000487248 0 0.00128906 0 0)
(0.012095 -0.000789854 0 0.00127712 0 0)
(0.0130346 -0.00126568 0 0.00133397 0 0)
(0.014838 -0.00196971 0 0.00148445 0 0)
(0.0177925 -0.00300571 0 0.00176283 0 0)
(0.022188 -0.00455561 0 0.00226277 0 0)
(0.0286839 -0.00688904 0 0.00306566 0 0)
(0.0378624 -0.0105964 0 0.00453527 0 0)
(0.0511487 -0.0162428 0 0.00695036 0 0)
(0.0693687 -0.0257687 0 0.011835 0 0)
(0.094278 -0.0406431 0 0.0206196 0 0)
(0.124406 -0.0667791 0 0.0410583 0 0)
(0.15396 -0.104923 0 0.0803154 0 0)
(0.0280927 0.000215789 0 0.0048901 0 0)
(0.017503 0.000475797 0 0.0028214 0 0)
(0.0141685 0.00020106 0 0.00196432 0 0)
(0.0128815 -3.63541e-05 0 0.00162476 0 0)
(0.0121363 -0.000185524 0 0.00149239 0 0)
(0.0118332 -0.000357492 0 0.00147015 0 0)
(0.0120393 -0.000652414 0 0.00152567 0 0)
(0.0128389 -0.00115688 0 0.00167027 0 0)
(0.0143854 -0.00194885 0 0.00193718 0 0)
(0.0169039 -0.00314508 0 0.00239635 0 0)
(0.0207633 -0.00492738 0 0.00314352 0 0)
(0.0264523 -0.00763342 0 0.0043833 0 0)
(0.0347117 -0.0117431 0 0.00642917 0 0)
(0.0462242 -0.0181397 0 0.00997707 0 0)
(0.0619514 -0.0280259 0 0.0161963 0 0)
(0.0815031 -0.0435366 0 0.0279145 0 0)
(0.104068 -0.0665293 0 0.0491888 0 0)
(0.124122 -0.0972673 0 0.0879843 0 0)
(0.0268299 0.000325717 0 0.00513603 0 0)
(0.016598 2.02046e-05 0 0.00299542 0 0)
(0.013955 -0.000228098 0 0.00208458 0 0)
(0.0130045 -0.000476196 0 0.00177086 0 0)
(0.0124649 -0.000713034 0 0.0016767 0 0)
(0.0123992 -0.000996165 0 0.00170453 0 0)
(0.0128751 -0.00140309 0 0.00183252 0 0)
(0.0139106 -0.00201824 0 0.00207599 0 0)
(0.015593 -0.0029437 0 0.00248595 0 0)
(0.018098 -0.00431851 0 0.00314204 0 0)
(0.0217342 -0.00636499 0 0.00419131 0 0)
(0.026896 -0.00939461 0 0.00586549 0 0)
(0.034124 -0.0139228 0 0.00859485 0 0)
(0.0438005 -0.0206476 0 0.0131235 0 0)
(0.0563084 -0.0306186 0 0.020785 0 0)
(0.0709652 -0.0450718 0 0.0340023 0 0)
(0.0867676 -0.0646953 0 0.0560093 0 0)
(0.100044 -0.0888292 0 0.0922249 0 0)
(0.0264568 0.000246697 0 0.00536133 0 0)
(0.0166963 0.000295968 0 0.00342434 0 0)
(0.0141524 -7.68646e-06 0 0.00235222 0 0)
(0.0132965 -0.000352869 0 0.0019526 0 0)
(0.0127206 -0.000658994 0 0.00185573 0 0)
(0.0124262 -0.00101892 0 0.00193826 0 0)
(0.0125385 -0.00151582 0 0.00216083 0 0)
(0.013172 -0.00222396 0 0.00253889 0 0)
(0.0144666 -0.00324687 0 0.00313177 0 0)
(0.016581 -0.00473826 0 0.00405189 0 0)
(0.0197282 -0.0069233 0 0.00547142 0 0)
(0.0241505 -0.0101147 0 0.00768914 0 0)
(0.0301582 -0.014749 0 0.0111705 0 0)
(0.0378912 -0.0214124 0 0.0167565 0 0)
(0.0474103 -0.0308024 0 0.0256823 0 0)
(0.0580061 -0.0435627 0 0.0400908 0 0)
(0.0688066 -0.059744 0 0.0623367 0 0)
(0.0773785 -0.0782234 0 0.0959066 0 0)
(0.0272051 -0.000305553 0 0.00609038 0 0)
(0.017175 1.1722e-05 0 0.00399924 0 0)
(0.0144404 -0.00022128 0 0.00288994 0 0)
(0.0135723 -0.000538415 0 0.00247708 0 0)
(0.0130684 -0.000790976 0 0.00238785 0 0)
(0.0128688 -0.00110131 0 0.00250218 0 0)
(0.0130342 -0.00158913 0 0.00278635 0 0)
(0.0136356 -0.0023394 0 0.00326662 0 0)
(0.0147932 -0.00344908 0 0.00402017 0 0)
(0.0166427 -0.00505564 0 0.00518307 0 0)
(0.0193599 -0.00736145 0 0.00695567 0 0)
(0.0231099 -0.0106404 0 0.00967462 0 0)
(0.0280912 -0.0152575 0 0.0138305 0 0)
(0.0342851 -0.0216396 0 0.0202675 0 0)
(0.0415902 -0.0302156 0 0.0300777 0 0)
(0.049299 -0.0412253 0 0.0450594 0 0)
(0.0567579 -0.0543651 0 0.066857 0 0)
(0.0623464 -0.0684169 0 0.0979397 0 0)
(0.0281977 7.51785e-05 0 0.00621907 0 0)
(0.0181398 0.000197329 0 0.00421905 0 0)
(0.015425 -0.000103496 0 0.00298707 0 0)
(0.0143467 -0.000527899 0 0.00255292 0 0)
(0.0136087 -0.000882903 0 0.00252189 0 0)
(0.0133006 -0.00125286 0 0.00272684 0 0)
(0.0134686 -0.00177413 0 0.00313369 0 0)
(0.0140875 -0.00256087 0 0.00378498 0 0)
(0.0151717 -0.00371924 0 0.0047763 0 0)
(0.0167805 -0.00537942 0 0.00626663 0 0)
(0.0190289 -0.00772391 0 0.00847976 0 0)
(0.0220305 -0.0109939 0 0.0117758 0 0)
(0.0258941 -0.0154748 0 0.0166469 0 0)
(0.0305521 -0.0214512 0 0.0238898 0 0)
(0.0358148 -0.0291278 0 0.0344452 0 0)
(0.0411491 -0.0384757 0 0.0497568 0 0)
(0.0460278 -0.0490056 0 0.0709583 0 0)
(0.0495073 -0.0595954 0 0.0996919 0 0)
(0.0273609 -0.000168366 0 0.00630297 0 0)
(0.0174026 -2.48786e-05 0 0.004514 0 0)
(0.014897 -0.000332419 0 0.00340177 0 0)
(0.0142125 -0.000640684 0 0.00299528 0 0)
(0.013789 -0.000868726 0 0.00299321 0 0)
(0.0135975 -0.00116905 0 0.00325024 0 0)
(0.0136914 -0.00166973 0 0.00373946 0 0)
(0.0140761 -0.00245816 0 0.00451777 0 0)
(0.0148081 -0.0036192 0 0.00569806 0 0)
(0.015972 -0.00525859 0 0.00745436 0 0)
(0.0176647 -0.00751886 0 0.0100206 0 0)
(0.0199246 -0.0105796 0 0.0137622 0 0)
(0.0227499 -0.0146324 0 0.0191482 0 0)
(0.0259865 -0.0198297 0 0.0268968 0 0)
(0.0294026 -0.0261941 0 0.0377674 0 0)
(0.0325569 -0.0335576 0 0.0528953 0 0)
(0.0351253 -0.0413339 0 0.0729642 0 0)
(0.0365641 -0.0486139 0 0.0990874 0 0)
(0.0268312 -0.000108049 0 0.0069233 0 0)
(0.0171855 8.3867e-05 0 0.00524851 0 0)
(0.0148193 -0.000418097 0 0.00410443 0 0)
(0.0142841 -0.000965821 0 0.00367059 0 0)
(0.0139552 -0.00135101 0 0.00369476 0 0)
(0.0138038 -0.00172712 0 0.00404442 0 0)
(0.0139653 -0.00228051 0 0.00468631 0 0)
(0.0144682 -0.00313521 0 0.00566993 0 0)
(0.0152905 -0.00437012 0 0.0071086 0 0)
(0.0164014 -0.00605652 0 0.00918585 0 0)
(0.0178084 -0.00829049 0 0.0121438 0 0)
(0.0195011 -0.0111788 0 0.0163365 0 0)
(0.0214901 -0.014824 0 0.022188 0 0)
(0.0236175 -0.0192414 0 0.0303168 0 0)
(0.0257486 -0.0243474 0 0.0412997 0 0)
(0.0275348 -0.0298385 0 0.0560061 0 0)
(0.0288958 -0.0351897 0 0.0747877 0 0)
(0.0295048 -0.0395991 0 0.0984352 0 0)
(0.0263351 6.35511e-05 0 0.00694157 0 0)
(0.0170978 -0.000126972 0 0.0053363 0 0)
(0.0147015 -0.000383243 0 0.00414397 0 0)
(0.0138869 -0.00067648 0 0.00368399 0 0)
(0.0132685 -0.00090893 0 0.00375542 0 0)
(0.0128329 -0.00120224 0 0.00417967 0 0)
(0.012676 -0.00167977 0 0.00489545 0 0)
(0.0128175 -0.00241829 0 0.00596486 0 0)
(0.0132328 -0.00347174 0 0.00752817 0 0)
(0.0138757 -0.00489751 0 0.00978808 0 0)
(0.0147247 -0.00677614 0 0.0129823 0 0)
(0.0157508 -0.00919033 0 0.017439 0 0)
(0.0169537 -0.012198 0 0.023518 0 0)
(0.0182373 -0.0157595 0 0.0317401 0 0)
(0.0194917 -0.019733 0 0.0425166 0 0)
(0.0205422 -0.0238208 0 0.0565234 0 0)
(0.0212977 -0.0275289 0 0.0738643 0 0)
(0.021709 -0.0302725 0 0.0951645 0 0)
(0.026944 -0.000505327 0 0.00789911 0 0)
(0.0170976 -0.000817335 0 0.00630166 0 0)
(0.0145459 -0.00133449 0 0.00499018 0 0)
(0.0137466 -0.0017558 0 0.00449242 0 0)
(0.0132006 -0.00195803 0 0.00456211 0 0)
(0.012815 -0.00210869 0 0.00504039 0 0)
(0.0126161 -0.00240306 0 0.00587739 0 0)
(0.0126238 -0.00296588 0 0.00712153 0 0)
(0.0128588 -0.00385495 0 0.00889631 0 0)
(0.0133074 -0.00509201 0 0.0113952 0 0)
(0.013926 -0.00669842 0 0.0148446 0 0)
(0.0146397 -0.00868865 0 0.0195474 0 0)
(0.0153755 -0.0110624 0 0.0258099 0 0)
(0.0160361 -0.0137261 0 0.0340574 0 0)
(0.0165231 -0.0165232 0 0.044576 0 0)
(0.016812 -0.0191654 0 0.057873 0 0)
(0.0168996 -0.021248 0 0.0739052 0 0)
(0.0168849 -0.0222958 0 0.0931431 0 0)
(0.0288187 -0.000654708 0 0.00823605 0 0)
(0.0190093 -0.0010129 0 0.00681924 0 0)
(0.0163248 -0.00125386 0 0.00545088 0 0)
(0.0155094 -0.00148013 0 0.00491412 0 0)
(0.0149344 -0.00162298 0 0.00499101 0 0)
(0.0144895 -0.00180358 0 0.00552693 0 0)
(0.0142605 -0.00215574 0 0.00646979 0 0)
(0.01424 -0.00275042 0 0.00785837 0 0)
(0.014389 -0.00360467 0 0.00980134 0 0)
(0.0146535 -0.00470538 0 0.0124726 0 0)
(0.0149665 -0.00604299 0 0.01607 0 0)
(0.0152527 -0.007599 0 0.0208543 0 0)
(0.0154572 -0.00934079 0 0.0270645 0 0)
(0.0155221 -0.0111493 0 0.0350431 0 0)
(0.0154071 -0.0128643 0 0.0449532 0 0)
(0.015118 -0.0142182 0 0.0571923 0 0)
(0.0147465 -0.0148829 0 0.071588 0 0)
(0.0143849 -0.0144989 0 0.0885457 0 0)
(0.0275698 0.000286926 0 0.00887214 0 0)
(0.0165227 -0.000146941 0 0.00751709 0 0)
(0.0134856 -0.000649206 0 0.00602828 0 0)
(0.0126774 -0.00095765 0 0.00550898 0 0)
(0.0121609 -0.0010677 0 0.00569207 0 0)
(0.0116668 -0.00116091 0 0.00634437 0 0)
(0.0112757 -0.00138814 0 0.00738966 0 0)
(0.0110572 -0.00181067 0 0.00887377 0 0)
(0.0110229 -0.00241836 0 0.010914 0 0)
(0.011116 -0.00317119 0 0.0136834 0 0)
(0.0112521 -0.00403652 0 0.0173542 0 0)
(0.0113635 -0.0049701 0 0.0221345 0 0)
(0.0114202 -0.00591412 0 0.0281834 0 0)
(0.0114157 -0.00673714 0 0.0357441 0 0)
(0.0113512 -0.00728811 0 0.044861 0 0)
(0.0112693 -0.00735155 0 0.0558191 0 0)
(0.011307 -0.00667486 0 0.0683655 0 0)
(0.011507 -0.00503261 0 0.0828425 0 0)
(0.0264412 0.000425348 0 0.00963093 0 0)
(0.0163711 1.11753e-05 0 0.00855071 0 0)
(0.013464 -0.000564494 0 0.00699042 0 0)
(0.0125607 -0.000895411 0 0.0063513 0 0)
(0.0120088 -0.000922043 0 0.00648554 0 0)
(0.0115307 -0.000853457 0 0.00718065 0 0)
(0.0111411 -0.000870168 0 0.0083095 0 0)
(0.0108369 -0.00103825 0 0.00987633 0 0)
(0.0106055 -0.00132424 0 0.0119812 0 0)
(0.0104198 -0.00164613 0 0.0147736 0 0)
(0.0102542 -0.00193157 0 0.0183833 0 0)
(0.0100991 -0.00211558 0 0.0229541 0 0)
(0.00998008 -0.00213689 0 0.0285717 0 0)
(0.00992969 -0.00188802 0 0.0353906 0 0)
(0.00997512 -0.00125384 0 0.0433763 0 0)
(0.0101903 -8.57684e-05 0 0.0527409 0 0)
(0.0106728 0.00178172 0 0.0632066 0 0)
(0.0115311 0.00447418 0 0.0750552 0 0)
(0.0288559 0.000420341 0 0.0100661 0 0)
(0.018424 -0.000228225 0 0.0092411 0 0)
(0.0146743 -0.000919541 0 0.00745473 0 0)
(0.01308 -0.00105525 0 0.00671875 0 0)
(0.0121102 -0.000800598 0 0.00681042 0 0)
(0.0114517 -0.00046666 0 0.00747267 0 0)
(0.0109793 -0.000248236 0 0.00857665 0 0)
(0.0106152 -0.000164469 0 0.0101165 0 0)
(0.0103425 -0.000130048 0 0.0121628 0 0)
(0.0101463 -3.67699e-05 0 0.014823 0 0)
(0.0099938 0.00019112 0 0.0181826 0 0)
(0.0098807 0.000619084 0 0.0223331 0 0)
(0.00984053 0.00129743 0 0.0273056 0 0)
(0.00994172 0.00232409 0 0.0331895 0 0)
(0.0102327 0.00376825 0 0.0399014 0 0)
(0.0108083 0.00575352 0 0.0475961 0 0)
(0.0117511 0.00833557 0 0.055995 0 0)
(0.0131193 0.0116456 0 0.065337 0 0)
(0.0265138 0.000790758 0 0.0105281 0 0)
(0.0156271 -6.06686e-05 0 0.00995663 0 0)
(0.0120775 -0.000680986 0 0.00833135 0 0)
(0.0105715 -0.000717431 0 0.0075458 0 0)
(0.00955693 -0.000474214 0 0.00756036 0 0)
(0.00884198 -0.000182409 0 0.00818129 0 0)
(0.00839427 5.64314e-05 0 0.00923326 0 0)
(0.00815883 0.000259363 0 0.0106483 0 0)
(0.00810586 0.000512883 0 0.0124512 0 0)
(0.00818987 0.00091499 0 0.0147164 0 0)
(0.00835 0.00152917 0 0.0175022 0 0)
(0.00856989 0.00240399 0 0.0208705 0 0)
(0.00888827 0.0035661 0 0.0248238 0 0)
(0.00938791 0.00508133 0 0.029415 0 0)
(0.0101303 0.00698298 0 0.0345488 0 0)
(0.0112229 0.0093588 0 0.0403407 0 0)
(0.0127146 0.0122169 0 0.0465574 0 0)
(0.014708 0.0156594 0 0.0533565 0 0)
(0.0256675 0.000263977 0 0.0103055 0 0)
(0.0163758 0.000215345 0 0.00948831 0 0)
(0.0130349 -0.000137154 0 0.00772388 0 0)
(0.0110864 -9.27115e-05 0 0.00684001 0 0)
(0.00986482 0.000188355 0 0.00677378 0 0)
(0.0091192 0.000467976 0 0.00725716 0 0)
(0.00865785 0.000700691 0 0.00810861 0 0)
(0.00842003 0.000970221 0 0.00926637 0 0)
(0.00841513 0.00138718 0 0.0107282 0 0)
(0.00861484 0.00202802 0 0.0125166 0 0)
(0.00896053 0.00291992 0 0.014648 0 0)
(0.00943792 0.0040773 0 0.0171505 0 0)
(0.0100779 0.00550417 0 0.0200176 0 0)
(0.0109551 0.00723645 0 0.0232793 0 0)
(0.0121126 0.0092845 0 0.0268579 0 0)
(0.0136377 0.0116974 0 0.0308408 0 0)
(0.0155619 0.0144629 0 0.0350537 0 0)
(0.0179508 0.0176352 0 0.0396037 0 0)
(0.0265908 0.000376708 0 0.0108608 0 0)
(0.0156421 0.000729442 0 0.00906762 0 0)
(0.0122655 0.000308953 0 0.00683729 0 0)
(0.0110166 0.000226254 0 0.00598333 0 0)
(0.0104275 0.000424224 0 0.00587384 0 0)
(0.0101936 0.000688854 0 0.00617188 0 0)
(0.0100488 0.000977528 0 0.00674983 0 0)
(0.00989661 0.00135842 0 0.0075526 0 0)
(0.00982892 0.00191678 0 0.00856491 0 0)
(0.00995693 0.00270559 0 0.00979901 0 0)
(0.0103306 0.00373815 0 0.0112636 0 0)
(0.0109749 0.00501545 0 0.0129659 0 0)
(0.0119039 0.00652974 0 0.0148894 0 0)
(0.0131528 0.0082935 0 0.017047 0 0)
(0.0147246 0.0103053 0 0.0193808 0 0)
(0.0166783 0.0125827 0 0.0219489 0 0)
(0.0190224 0.0151215 0 0.0246494 0 0)
(0.0217899 0.0179373 0 0.0275301 0 0)
(0.0262338 0.000345771 0 0.0101129 0 0)
(0.0156473 0.000561845 0 0.00856123 0 0)
(0.0128571 0.000358864 0 0.00652956 0 0)
(0.0117968 0.000259863 0 0.00568291 0 0)
(0.0111729 0.000353714 0 0.00552276 0 0)
(0.0108375 0.000599312 0 0.00573158 0 0)
(0.0106766 0.000980418 0 0.00614641 0 0)
(0.0106658 0.0015084 0 0.00670123 0 0)
(0.0108666 0.00219221 0 0.00739996 0 0)
(0.0113235 0.00303082 0 0.00827005 0 0)
(0.0120496 0.00402477 0 0.00931859 0 0)
(0.0130634 0.0051934 0 0.0105386 0 0)
(0.0143902 0.00655786 0 0.0119057 0 0)
(0.016067 0.0081502 0 0.0134163 0 0)
(0.0180944 0.00997115 0 0.0150223 0 0)
(0.0205104 0.012024 0 0.016777 0 0)
(0.0233117 0.014287 0 0.0186089 0 0)
(0.026498 0.0167505 0 0.0205455 0 0)
(0.0268434 0.000700132 0 0.00962599 0 0)
(0.0164465 0.00089209 0 0.00831859 0 0)
(0.0136453 0.000669688 0 0.00640368 0 0)
(0.012423 0.000686467 0 0.00546656 0 0)
(0.0116481 0.000877507 0 0.00513942 0 0)
(0.0112979 0.00113213 0 0.00515152 0 0)
(0.0112115 0.00144945 0 0.00534694 0 0)
(0.0112846 0.00186724 0 0.00565422 0 0)
(0.0115361 0.00240757 0 0.00606299 0 0)
(0.0120174 0.0030825 0 0.00658893 0 0)
(0.0127571 0.00390519 0 0.00724121 0 0)
(0.0137836 0.00489613 0 0.00801793 0 0)
(0.0151234 0.00606471 0 0.00889879 0 0)
(0.0168201 0.007427 0 0.00987678 0 0)
(0.0188812 0.00897171 0 0.010914 0 0)
(0.021355 0.010698 0 0.0120526 0 0)
(0.0242477 0.012593 0 0.013248 0 0)
(0.0275407 0.0146415 0 0.0144969 0 0)
(0.0270988 0.000626203 0 0.00961702 0 0)
(0.0170537 0.000378423 0 0.00768254 0 0)
(0.014248 0.000136809 0 0.00570508 0 0)
(0.013164 0.00011544 0 0.00481897 0 0)
(0.0125007 0.000235681 0 0.00452157 0 0)
(0.0121205 0.000454763 0 0.00451157 0 0)
(0.0119246 0.000759888 0 0.00463643 0 0)
(0.0118908 0.00115167 0 0.00483601 0 0)
(0.0120847 0.00163358 0 0.00510485 0 0)
(0.0125608 0.00221175 0 0.00545539 0 0)
(0.0133308 0.0028972 0 0.00589146 0 0)
(0.0144032 0.00371066 0 0.00641036 0 0)
(0.0158038 0.00467055 0 0.00700169 0 0)
(0.0175723 0.00579509 0 0.0076599 0 0)
(0.0197176 0.00708163 0 0.00835558 0 0)
(0.0222649 0.00851952 0 0.00912183 0 0)
(0.025225 0.0100999 0 0.00992173 0 0)
(0.0285352 0.0117926 0 0.0107411 0 0)
(0.0284091 0.000262199 0 0.00789363 0 0)
(0.0184717 0.000258673 0 0.00605193 0 0)
(0.0157894 0.000183726 0 0.00438037 0 0)
(0.0144608 0.000256718 0 0.00361448 0 0)
(0.0135392 0.00042195 0 0.00329029 0 0)
(0.0131206 0.000672879 0 0.00317928 0 0)
(0.0131131 0.000997661 0 0.00318831 0 0)
(0.0133998 0.00138937 0 0.00327456 0 0)
(0.0139681 0.00184671 0 0.00342288 0 0)
(0.0148282 0.00237315 0 0.00363164 0 0)
(0.01596 0.00297672 0 0.00389868 0 0)
(0.0173499 0.00367336 0 0.00421849 0 0)
(0.0190199 0.00447824 0 0.00458277 0 0)
(0.0210243 0.00540719 0 0.00498675 0 0)
(0.0233876 0.00646039 0 0.00541121 0 0)
(0.026166 0.00763483 0 0.00588223 0 0)
(0.0293757 0.00892259 0 0.00637827 0 0)
(0.0329556 0.0103054 0 0.00689058 0 0)
(0.0269568 4.09949e-05 0 0.0073453 0 0)
(0.0175609 0.000274484 0 0.00546751 0 0)
(0.0153469 0.000297496 0 0.00400596 0 0)
(0.0144339 0.000326153 0 0.003318 0 0)
(0.0136375 0.000419892 0 0.0030643 0 0)
(0.0130479 0.000595095 0 0.00301215 0 0)
(0.0127579 0.000811809 0 0.00303417 0 0)
(0.0127891 0.00105471 0 0.00307941 0 0)
(0.0131701 0.00134396 0 0.00314507 0 0)
(0.0139053 0.00171115 0 0.00324574 0 0)
(0.0149579 0.00217873 0 0.00338999 0 0)
(0.0162968 0.00275631 0 0.00357498 0 0)
(0.0179268 0.00343968 0 0.00379312 0 0)
(0.0198895 0.0042242 0 0.00404085 0 0)
(0.022191 0.00509439 0 0.00430207 0 0)
(0.0248887 0.00604554 0 0.00459808 0 0)
(0.0279877 0.00707396 0 0.00491253 0 0)
(0.0314489 0.0081673 0 0.00522555 0 0)
(0.0278825 7.99546e-05 0 0.00657149 0 0)
(0.0183984 3.04144e-05 0 0.00434863 0 0)
(0.0157791 -6.62223e-06 0 0.00313685 0 0)
(0.0146655 5.03927e-05 0 0.00262298 0 0)
(0.0139069 0.000152986 0 0.0024114 0 0)
(0.0135081 0.000283674 0 0.00232962 0 0)
(0.0134395 0.000423456 0 0.00228557 0 0)
(0.0136022 0.000582389 0 0.00225259 0 0)
(0.0139698 0.000785563 0 0.00223945 0 0)
(0.0145718 0.0010504 0 0.00225829 0 0)
(0.0154425 0.00138195 0 0.00231057 0 0)
(0.0166198 0.00178161 0 0.0023902 0 0)
(0.0181419 0.00225014 0 0.00249109 0 0)
(0.0200492 0.00279326 0 0.00261121 0 0)
(0.0223275 0.00341216 0 0.00274092 0 0)
(0.025004 0.00410583 0 0.00289555 0 0)
(0.0280774 0.004873 0 0.0030643 0 0)
(0.0314764 0.00570023 0 0.00323275 0 0)
(0.0266694 -0.000215683 0 0.00582633 0 0)
(0.0172156 -0.000291753 0 0.00386969 0 0)
(0.0150933 -0.000155912 0 0.00280271 0 0)
(0.0142701 1.41588e-05 0 0.00231141 0 0)
(0.0136107 0.000142897 0 0.00209036 0 0)
(0.0132367 0.000254452 0 0.0019902 0 0)
(0.0132044 0.000362331 0 0.00192925 0 0)
(0.0134446 0.000486542 0 0.0018804 0 0)
(0.0139224 0.000650621 0 0.00184501 0 0)
(0.0146491 0.00086463 0 0.00183008 0 0)
(0.0156468 0.00112942 0 0.00183815 0 0)
(0.01695 0.00144872 0 0.00186692 0 0)
(0.0186052 0.00182668 0 0.00191312 0 0)
(0.0206586 0.00226572 0 0.0019739 0 0)
(0.0231047 0.00275865 0 0.00203986 0 0)
(0.0259669 0.00329576 0 0.00212316 0 0)
(0.0292379 0.00387021 0 0.00221501 0 0)
(0.0328426 0.00447619 0 0.00230272 0 0)
(0.0283271 -5.16377e-06 0 0.00505764 0 0)
(0.0185733 -0.000171993 0 0.00296134 0 0)
(0.0158368 -0.000119175 0 0.00212862 0 0)
(0.0145832 -2.06909e-05 0 0.00178256 0 0)
(0.0137204 5.14022e-05 0 0.00161291 0 0)
(0.013252 8.35336e-05 0 0.00150932 0 0)
(0.013178 0.000112704 0 0.00142341 0 0)
(0.0134114 0.000183843 0 0.00134459 0 0)
(0.0138976 0.000306332 0 0.00127701 0 0)
(0.0146217 0.000460211 0 0.00122524 0 0)
(0.0155885 0.000627092 0 0.0011901 0 0)
(0.0168336 0.000806795 0 0.00116944 0 0)
(0.018417 0.00101111 0 0.00116183 0 0)
(0.0203997 0.001255 0 0.00116667 0 0)
(0.0227896 0.00154622 0 0.00117983 0 0)
(0.0256158 0.00188397 0 0.00120938 0 0)
(0.0288669 0.00226577 0 0.00124924 0 0)
(0.0324494 0.0026864 0 0.0012897 0 0)
(0.0285928 -0.000203145 0 0.00401262 0 0)
(0.0203121 -0.000423326 0 0.00225048 0 0)
(0.0178077 -0.00038051 0 0.00165814 0 0)
(0.0164153 -0.000287315 0 0.00139889 0 0)
(0.0155884 -0.000254428 0 0.00125244 0 0)
(0.0152888 -0.000288571 0 0.00115188 0 0)
(0.0152805 -0.000344322 0 0.00107071 0 0)
(0.0153989 -0.000368475 0 0.00100271 0 0)
(0.0156753 -0.000336128 0 0.000947133 0 0)
(0.0162311 -0.000254639 0 0.000902467 0 0)
(0.0171543 -0.000141697 0 0.000866612 0 0)
(0.0184742 -5.96171e-06 0 0.00083793 0 0)
(0.0201824 0.000155103 0 0.000816022 0 0)
(0.0222817 0.000347733 0 0.000800148 0 0)
(0.0247362 0.000575288 0 0.000788527 0 0)
(0.0276101 0.000835686 0 0.000786795 0 0)
(0.0309213 0.00113129 0 0.000789278 0 0)
(0.0346348 0.00145168 0 0.000790601 0 0)
(0.0261869 -9.21747e-07 0 0.00391587 0 0)
(0.0172915 0.000109166 0 0.00222629 0 0)
(0.0153182 6.32207e-05 0 0.00167817 0 0)
(0.0141796 6.31626e-05 0 0.00138679 0 0)
(0.013092 4.39636e-05 0 0.00119464 0 0)
(0.0124218 3.09633e-05 0 0.00105413 0 0)
(0.0123038 5.05113e-05 0 0.000945745 0 0)
(0.0126413 8.98211e-05 0 0.000859232 0 0)
(0.0133392 0.000121389 0 0.000788799 0 0)
(0.0143615 0.000132736 0 0.000730569 0 0)
(0.0157105 0.000131752 0 0.000681246 0 0)
(0.0174328 0.000135442 0 0.000638883 0 0)
(0.019606 0.000158949 0 0.000602722 0 0)
(0.0223248 0.000208718 0 0.000570705 0 0)
(0.0256542 0.000285587 0 0.000540895 0 0)
(0.0297127 0.000382882 0 0.000519013 0 0)
(0.0345076 0.000496369 0 0.000497902 0 0)
(0.0400494 0.000622159 0 0.000469738 0 0)
(0.0110662 -0.00767976 9.06163e-23 0.0133402 -9.76098e-23 4.80377e-38)
(0.0614246 -0.0123173 -2.05236e-22 0.0172789 3.3896e-23 4.73617e-38)
(0.138926 -0.0145133 0 0.0279499 0 0)
(0.231091 -0.0168438 0 0.0470491 0 0)
(0.311638 -0.026505 0 0.0667132 0 0)
(0.408639 -0.0517207 3.30898e-22 0.0856454 4.78073e-23 4.46098e-38)
(0.554639 -0.0936903 0 0.10349 0 0)
(0.776064 -0.148331 0 0.112417 0 0)
(1.08433 -0.202407 0 0.110568 0 0)
(1.47415 -0.246753 0 0.101258 0 0)
(1.93182 -0.276635 -1.94837e-22 0.0874268 4.26987e-25 4.13111e-38)
(2.4321 -0.286126 0 0.0698416 0 0)
(2.94037 -0.27304 0 0.0540642 0 0)
(3.42268 -0.244807 0 0.0424716 0 0)
(3.85565 -0.207116 0 0.0341747 0 0)
(4.22208 -0.161713 -8.33997e-24 0.0284885 5.86533e-23 3.81786e-38)
(4.50856 -0.11111 0 0.0252 0 0)
(4.70793 -0.0594579 0 0.0247076 0 0)
(4.82081 -0.011922 0 0.0268174 0 0)
(4.85278 0.0271349 0 0.0306729 0 0)
(4.81815 0.055081 0 0.0357495 0 0)
(4.73427 0.0737178 0 0.0416828 0 0)
(4.61536 0.0873667 0 0.0486143 0 0)
(4.46276 0.0951674 -9.83088e-22 0.0571379 1.60057e-22 3.35118e-38)
(4.30374 0.0922105 1.20722e-21 0.0654119 -1.53062e-22 3.29574e-38)
(4.14434 0.0801241 -1.43177e-21 0.0731666 1.26452e-22 3.24092e-38)
(4.02095 0.0628936 -1.64875e-21 0.0897775 9.68534e-23 3.18672e-38)
(3.94283 0.0237724 0 0.0967745 0 0)
(3.93951 -0.00400993 0 0.0947409 0 0)
(3.99372 -0.0430475 2.22828e-21 0.0914882 -1.99224e-23 3.02775e-38)
(4.12993 -0.101114 2.42842e-21 0.096985 -7.97489e-23 2.97596e-38)
(4.366 -0.156938 0 0.0969593 0 0)
(4.69624 -0.203403 0 0.0973499 0 0)
(5.11469 -0.235756 3.12154e-21 0.102977 -8.16633e-23 2.82429e-38)
(5.59554 -0.266024 0 0.113129 0 0)
(6.12101 -0.274334 0 0.112326 0 0)
(6.69969 -0.313254 -4.03245e-21 0.127807 1.22754e-22 2.67821e-38)
(7.34484 -0.349814 0 0.131906 0 0)
(8.04836 -0.380877 -4.76937e-21 0.139188 1.39982e-22 2.58396e-38)
(8.79342 -0.398185 -1.03541e-20 0.124138 3.21561e-22 1.0151e-37)
(9.57433 -0.407554 0 0.120751 0 0)
(10.3972 -0.417516 0 0.108534 0 0)
(11.27 -0.441269 0 0.0853184 0 0)
(12.1715 -0.448727 0 0.0838725 0 0)
(13.0375 -0.433651 0 0.0868324 0 0)
(13.904 -0.426921 -1.53245e-20 0.10411 3.28137e-22 9.09333e-38)
(14.7 -0.433302 -1.593e-20 0.113053 2.79994e-22 8.92551e-38)
(15.4911 -0.426054 -1.64337e-20 0.114394 2.46474e-22 8.76009e-38)
(16.1795 -0.393857 0 0.1215 0 0)
(16.7672 -0.348345 1.73697e-20 0.124784 -3.07223e-22 8.43624e-38)
(17.3405 -0.362475 0 0.121289 0 0)
(17.9902 -0.352815 -1.80603e-20 0.0986125 2.66054e-22 8.12176e-38)
(18.5814 -0.34399 -1.83796e-20 0.100625 2.91492e-22 7.96803e-38)
(19.1585 -0.29634 0 0.0927505 0 0)
(19.5783 -0.295375 0 0.111808 0 0)
(20.0216 -0.2673 0 0.115639 0 0)
(20.4572 -0.283982 -1.98157e-20 0.1232 2.0448e-22 7.37581e-38)
(20.9595 -0.280014 0 0.103786 0 0)
(21.5203 -0.302666 0 0.101563 0 0)
(22.1038 -0.276161 0 0.0924364 0 0)
(22.5839 -0.238827 0 0.0997372 0 0)
(23.1184 -0.259732 0 0.0964846 0 0)
(23.7123 -0.270796 0 0.0867585 0 0)
(24.2857 -0.273833 0 0.0739472 0 0)
(24.8897 -0.272775 0 0.0675096 0 0)
(25.4552 -0.245724 2.50268e-20 0.0618847 -3.49431e-22 6.17121e-38)
(25.9114 -0.204854 0 0.0581219 0 0)
(26.2158 -0.170189 0 0.0576179 0 0)
(26.4079 -0.157842 -2.64158e-20 0.0603079 3.50413e-22 5.80701e-38)
(26.4244 -0.121829 -2.66674e-20 0.0546196 3.07793e-22 5.68955e-38)
(26.3135 -0.100071 0 0.0499663 0 0)
(26.1122 -0.0101679 2.68034e-20 0.050834 -2.05275e-22 5.46028e-38)
(25.6408 0.0418741 -2.64993e-20 0.0841564 1.10133e-22 5.34843e-38)
(25.2084 0.0324345 0 0.0960195 0 0)
(24.8407 -0.0261921 2.54993e-20 0.103112 -2.03092e-23 5.13017e-38)
(24.621 -0.102164 0 0.104754 0 0)
(24.5623 -0.146685 0 0.103034 0 0)
(24.5394 -0.173145 -2.45493e-20 0.108649 1.77177e-22 4.81626e-38)
(24.6015 -0.190517 0 0.0991876 0 0)
(24.6617 -0.242917 2.4008e-20 0.092636 -1.29158e-22 4.61581e-38)
(24.9882 -0.24198 0 0.0776787 0 0)
(25.2384 -0.265543 -2.38273e-20 0.0767838 1.85301e-22 4.4222e-38)
(25.6491 -0.196938 -2.37836e-20 0.0702446 1.94546e-22 4.32789e-38)
(25.5817 -0.0897989 -2.38048e-20 0.0892991 2.10004e-22 4.2352e-38)
(25.668 -0.101715 -4.77596e-20 0.0819177 4.5436e-22 1.65766e-37)
(25.8946 -0.103052 4.80237e-20 0.0703714 -4.77954e-22 1.62188e-37)
(26.1691 -0.112149 0 0.0611022 0 0)
(26.4328 -0.113658 0 0.054695 0 0)
(26.7035 -0.12803 0 0.0468767 0 0)
(27.01 -0.128342 4.95595e-20 0.0395058 -4.4546e-22 1.48502e-37)
(27.2066 -0.106536 4.98183e-20 0.0466683 -4.15529e-22 1.45229e-37)
(27.2484 -0.0749462 -4.99525e-20 0.0537989 5.39064e-22 1.42014e-37)
(27.3696 -0.061119 0 0.0663713 0 0)
(27.1614 -0.0182587 4.95695e-20 0.0894983 -3.60402e-22 1.3575e-37)
(27.0973 -0.092849 4.86266e-20 0.100329 -2.93737e-22 1.32702e-37)
(27.3574 -0.134453 4.78129e-20 0.0843329 -3.30253e-22 1.29708e-37)
(27.7495 -0.131275 0 0.072847 0 0)
(28.0844 -0.0975787 0 0.0651073 0 0)
(28.2742 -0.0591527 0 0.0616409 0 0)
(28.2674 -0.0214232 4.55908e-20 0.0589353 -2.52585e-22 1.18269e-37)
(28.1 0.0202053 0 0.0498915 0 0)
(27.7812 0.0529868 0 0.0440802 0 0)
(27.3874 0.0721422 -4.24622e-20 0.0424296 1.87914e-22 1.10229e-37)
(26.7833 0.114101 0 0.0433601 0 0)
(26.0823 0.114077 0 0.0466422 0 0)
(25.3508 0.161169 -3.82393e-20 0.0549768 7.51086e-24 1.02625e-37)
(24.5109 0.0802673 0 0.0802893 0 0)
(24.0731 0.00841264 0 0.0737528 0 0)
(23.8909 -0.0276213 3.42026e-20 0.0720569 -1.42485e-22 9.54363e-38)
(23.9215 -0.0535357 3.39382e-20 0.0729308 -2.22409e-22 9.31306e-38)
(24.11 -0.081101 0 0.0684484 0 0)
(24.437 -0.0989812 -3.44276e-20 0.0605296 3.52304e-22 8.86509e-38)
(24.8431 -0.106012 0 0.0521215 0 0)
(25.2659 -0.0978837 3.55307e-20 0.045079 -3.16326e-22 8.43407e-38)
(25.6316 -0.0779946 0 0.0398802 0 0)
(25.8982 -0.0501348 3.62916e-20 0.0359983 -3.09179e-22 8.01931e-38)
(26.031 -0.0196528 3.63835e-20 0.0334608 -2.7595e-22 7.81784e-38)
(26.0217 0.0102428 0 0.0316719 0 0)
(25.8708 0.0362382 0 0.0306844 0 0)
(25.5982 0.0538722 0 0.0290624 0 0)
(25.2364 0.0631302 0 0.0315306 0 0)
(24.9317 0.0531408 0 0.0284578 0 0)
(24.6526 0.0601775 0 0.0370625 0 0)
(24.4728 0.000641476 0 0.0599831 0 0)
(24.6627 -0.0547807 3.02649e-20 0.0493647 -1.70239e-22 6.33913e-38)
(24.9305 -0.0635426 -2.96354e-20 0.0389367 1.68636e-22 6.17028e-38)
(25.2322 -0.0595428 0 0.0336231 0 0)
(25.4611 -0.0554594 0 0.0301255 0 0)
(25.6596 -0.0363931 0 0.0235448 0 0)
(25.6931 0.00417226 0 0.0214296 0 0)
(25.511 0.0407915 -5.64562e-20 0.022515 4.98437e-22 2.15053e-37)
(25.0407 0.065475 0 0.0232835 0 0)
(24.5175 0.0884985 5.45722e-20 0.0241933 -1.45315e-22 2.03231e-37)
(24.0685 0.0237558 -5.24894e-20 0.0619222 3.36303e-23 1.97495e-37)
(24.6634 -0.173309 0 0.0897129 0 0)
(25.6805 -0.220324 0 0.0706464 0 0)
(26.8971 -0.206621 0 0.0579584 0 0)
(28.1452 -0.237054 5.71634e-20 0.0672348 -9.64164e-22 1.75723e-37)
(29.6458 -0.228236 6.06001e-20 0.0470173 -9.00429e-22 1.7057e-37)
(30.722 -0.145614 0 0.0320798 0 0)
(31.5 -0.076079 6.59926e-20 0.0262809 -6.18615e-22 1.60596e-37)
(31.7833 -0.0107345 6.71609e-20 0.0232406 -4.72588e-22 1.55766e-37)
(31.7883 0.0352923 -6.74002e-20 0.0222322 4.14689e-22 1.51037e-37)
(31.4535 0.0725428 0 0.0283838 0 0)
(30.9725 0.0727199 0 0.0376935 0 0)
(30.4736 0.076457 -6.09921e-20 0.0375052 1.16771e-22 1.3743e-37)
(29.7869 0.11078 0 0.0332968 0 0)
(28.8576 0.152689 0 0.0313501 0 0)
(27.6563 0.189009 0 0.0316148 0 0)
(26.2559 0.212033 0 0.0322904 0 0)
(24.7057 0.224115 3.87844e-20 0.0309356 1.11207e-22 1.16644e-37)
(23.0915 0.231206 3.42493e-20 0.0285261 5.57159e-23 1.12765e-37)
(21.4504 0.23221 0 0.0283209 0 0)
(19.8573 0.220097 2.67641e-20 0.0280219 -8.61794e-23 1.05274e-37)
(18.4331 0.18578 0 0.0353332 0 0)
(17.4549 0.102693 0 0.0462715 0 0)