/*--------------------------------*- C++ -*----------------------------------*\
  =========                 |
  \\      /  F ield         | OpenFOAM: The Open Source CFD Toolbox
   \\    /   O peration     | Website:  https://openfoam.org
    \\  /    A nd           | Version:  6
     \\/     M anipulation  |
\*---------------------------------------------------------------------------*/
FoamFile
{
    version     2.0;
    format      ascii;
    class       volScalarField;
    location    "0.3";
    object      k;
}
// * * * * * * * * * * * * * * * * * * * * * * * * * * * * * * * * * * * * * //

dimensions      [0 2 -2 0 0 0 0];

internalField   nonuniform List<scalar> 
12225
(
0.000193491
0.000153642
0.000415358
0.00122543
0.00152631
0.00151227
0.00120031
0.000649022
0.000331882
0.000188877
0.000148063
0.000149092
0.000190908
0.000279299
0.000319618
0.000327625
0.000296966
0.000511305
2.29321e-05
2.83926e-05
5.56385e-05
0.000171541
0.000303812
0.000346219
0.000340221
0.000290565
0.000188074
0.000118933
8.27095e-05
7.04686e-05
7.0059e-05
7.48438e-05
9.21254e-05
0.000147587
0.000179084
0.000199685
2.00772e-05
1.66071e-05
1.75432e-05
2.10289e-05
3.05303e-05
3.98288e-05
4.29412e-05
4.22474e-05
3.76959e-05
3.00033e-05
2.54057e-05
2.35864e-05
2.33087e-05
2.36619e-05
2.63827e-05
3.27535e-05
4.61953e-05
5.36945e-05
2.00072e-05
1.99953e-05
2.02004e-05
2.04585e-05
2.05329e-05
2.08057e-05
2.09691e-05
2.08296e-05
1.99196e-05
1.81527e-05
1.67623e-05
1.58651e-05
1.55498e-05
1.55352e-05
1.56926e-05
1.63329e-05
1.79673e-05
2.03463e-05
2.04421e-05
2.28854e-05
2.32724e-05
2.26562e-05
2.1855e-05
2.17413e-05
2.18097e-05
2.18917e-05
2.19771e-05
2.23103e-05
2.3529e-05
2.41323e-05
2.40872e-05
2.35486e-05
2.23161e-05
2.14869e-05
2.10536e-05
2.09511e-05
2.3113e-05
2.58115e-05
2.4628e-05
2.22355e-05
2.20338e-05
2.29796e-05
2.41052e-05
2.43321e-05
2.42365e-05
2.40353e-05
2.38168e-05
2.3178e-05
2.23414e-05
2.16579e-05
2.11752e-05
2.08759e-05
2.07014e-05
2.06334e-05
2.12779e-05
3.73307e-05
4.31823e-05
3.68876e-05
2.82116e-05
2.61847e-05
2.60779e-05
2.60687e-05
2.58129e-05
2.53582e-05
2.45159e-05
2.36354e-05
2.31354e-05
2.28839e-05
2.24527e-05
2.19235e-05
2.13961e-05
2.09586e-05
2.11484e-05
2.18788e-05
2.69135e-05
2.83724e-05
2.75914e-05
2.48528e-05
2.33291e-05
2.26193e-05
2.21863e-05
2.19077e-05
2.17741e-05
2.176e-05
2.18843e-05
2.26888e-05
2.38357e-05
2.41299e-05
2.38896e-05
2.25777e-05
2.10512e-05
2.37944e-05
2.51451e-05
2.53034e-05
2.45721e-05
2.25203e-05
2.13754e-05
2.09228e-05
2.08165e-05
2.08356e-05
2.10376e-05
2.18764e-05
2.42104e-05
2.64104e-05
2.76229e-05
2.77988e-05
2.73694e-05
2.56036e-05
2.70871e-05
2.25782e-05
2.73182e-05
3.67397e-05
3.59543e-05
2.96285e-05
2.43408e-05
2.20653e-05
2.1275e-05
2.11104e-05
2.11373e-05
2.13642e-05
2.1605e-05
2.17088e-05
2.17716e-05
2.1877e-05
2.21081e-05
2.26305e-05
2.29202e-05
2.127e-05
2.14367e-05
2.20961e-05
2.20854e-05
2.16193e-05
2.12245e-05
2.1179e-05
2.13427e-05
2.23042e-05
2.3683e-05
2.44487e-05
2.47843e-05
2.4923e-05
2.5054e-05
2.53154e-05
2.60328e-05
2.8384e-05
2.53733e-05
2.44877e-05
2.13227e-05
2.11362e-05
2.14369e-05
2.16548e-05
2.14846e-05
2.14718e-05
2.17222e-05
2.25995e-05
2.31798e-05
2.33661e-05
2.33711e-05
2.32274e-05
2.29854e-05
2.29128e-05
2.29296e-05
2.31328e-05
2.6313e-05
2.36339e-05
2.26241e-05
2.22675e-05
2.1356e-05
2.07163e-05
2.06053e-05
2.07182e-05
2.14175e-05
2.2377e-05
2.29763e-05
2.33642e-05
2.36562e-05
2.38724e-05
2.40613e-05
2.43712e-05
2.50423e-05
2.68703e-05
2.02775e-05
2.40244e-05
2.7152e-05
2.71272e-05
2.46798e-05
2.17962e-05
2.07213e-05
2.0462e-05
2.0464e-05
2.06358e-05
2.12798e-05
2.31678e-05
2.88534e-05
3.54506e-05
3.94196e-05
4.06149e-05
4.04763e-05
3.88669e-05
2.01538e-05
2.17257e-05
2.2216e-05
2.19594e-05
2.11921e-05
2.09148e-05
2.08894e-05
2.09507e-05
2.11648e-05
2.16618e-05
2.28729e-05
2.68051e-05
3.29334e-05
3.68709e-05
3.81826e-05
3.82204e-05
3.75158e-05
3.43355e-05
2.19759e-05
2.24539e-05
2.13437e-05
2.07059e-05
2.08038e-05
2.14294e-05
2.17993e-05
2.19891e-05
2.23945e-05
2.28488e-05
2.29421e-05
2.2785e-05
2.26693e-05
2.27025e-05
2.28211e-05
2.28147e-05
2.25214e-05
2.18028e-05
2.31363e-05
2.4785e-05
2.36956e-05
2.18749e-05
2.13634e-05
2.13032e-05
2.14115e-05
2.22756e-05
2.63282e-05
2.91152e-05
2.90994e-05
2.73679e-05
2.46205e-05
2.30211e-05
2.21964e-05
2.17989e-05
2.16686e-05
2.15768e-05
2.13868e-05
2.14831e-05
2.1381e-05
2.18371e-05
2.25162e-05
2.26442e-05
2.25521e-05
2.2023e-05
2.15802e-05
2.13988e-05
2.13452e-05
2.13377e-05
2.13551e-05
2.14713e-05
2.19941e-05
2.30895e-05
2.38656e-05
2.42971e-05
2.25591e-05
2.24803e-05
2.13885e-05
2.12605e-05
2.1536e-05
2.181e-05
2.20138e-05
2.19464e-05
2.14704e-05
2.12988e-05
2.1305e-05
2.14864e-05
2.18303e-05
2.20032e-05
2.20704e-05
2.20778e-05
2.2026e-05
2.17917e-05
2.11371e-05
2.06947e-05
2.04785e-05
2.12921e-05
2.24007e-05
2.25318e-05
2.23391e-05
2.18364e-05
2.15791e-05
2.15673e-05
2.17627e-05
2.29275e-05
2.69088e-05
2.92943e-05
2.94817e-05
2.87503e-05
2.61189e-05
2.41145e-05
2.0701e-05
2.06241e-05
2.07763e-05
2.08998e-05
2.16884e-05
2.24977e-05
2.27867e-05
2.30368e-05
2.30659e-05
2.2904e-05
2.24391e-05
2.22251e-05
2.18968e-05
2.16999e-05
2.16682e-05
2.16934e-05
2.1856e-05
2.2419e-05
2.02573e-05
2.14055e-05
2.23073e-05
2.22545e-05
2.19259e-05
2.19468e-05
2.25765e-05
2.58363e-05
2.88004e-05
2.94308e-05
2.92316e-05
2.7788e-05
2.60468e-05
2.54615e-05
2.54104e-05
2.56524e-05
2.69284e-05
3.26368e-05
2.11324e-05
2.12346e-05
2.1084e-05
2.20152e-05
2.52114e-05
2.68899e-05
2.74042e-05
2.81267e-05
3.01827e-05
3.11769e-05
3.08706e-05
2.84329e-05
2.57539e-05
2.46513e-05
2.42697e-05
2.40931e-05
2.37672e-05
2.33313e-05
2.43677e-05
2.34345e-05
2.27611e-05
2.26066e-05
2.25778e-05
2.4591e-05
2.75311e-05
2.80624e-05
2.78259e-05
2.61302e-05
2.39396e-05
2.27262e-05
2.21936e-05
2.20767e-05
2.21106e-05
2.22975e-05
2.24439e-05
2.26594e-05
2.39026e-05
2.60903e-05
2.5215e-05
2.1883e-05
2.08206e-05
2.09894e-05
2.3246e-05
3.17819e-05
3.62411e-05
3.65294e-05
3.58238e-05
3.26947e-05
2.8044e-05
2.51324e-05
2.36834e-05
2.32169e-05
2.32064e-05
2.35691e-05
2.09448e-05
2.29719e-05
2.36285e-05
2.22942e-05
2.0932e-05
2.09313e-05
2.21862e-05
2.99209e-05
5.38861e-05
6.47111e-05
6.41258e-05
5.51858e-05
4.015e-05
3.15272e-05
2.77684e-05
2.68946e-05
2.72582e-05
3.09343e-05
2.01074e-05
2.0133e-05
2.00818e-05
1.98808e-05
1.95876e-05
1.94461e-05
1.94699e-05
1.97586e-05
2.0722e-05
2.12886e-05
2.1393e-05
2.13491e-05
2.11725e-05
2.07922e-05
1.98923e-05
1.8612e-05
1.77005e-05
1.75494e-05
2.00242e-05
1.47474e-05
1.44625e-05
1.5885e-05
1.75201e-05
1.76982e-05
1.72064e-05
1.65563e-05
1.63688e-05
1.65842e-05
1.7317e-05
1.78953e-05
1.86091e-05
1.9964e-05
2.37277e-05
3.02312e-05
3.60325e-05
3.90041e-05
2.06299e-05
2.79597e-05
3.50051e-05
4.69593e-05
8.56113e-05
0.000108617
0.00010953
0.000100255
7.67886e-05
6.35084e-05
5.91226e-05
5.88414e-05
6.09241e-05
7.07077e-05
0.000104104
0.000166611
0.000219151
0.000251816
7.45733e-05
0.000179898
0.000226205
0.000328387
0.000902939
0.00129409
0.00122252
0.000800786
0.000431256
0.000270299
0.000220538
0.000217967
0.000247541
0.00039879
0.000595042
0.000702902
0.000745215
0.000752444
0.182849
0.221467
0.223374
0.209163
0.182343
0.169684
0.165047
0.164014
0.164413
0.166338
0.17065
0.177729
0.182805
0.185052
0.185797
0.183532
0.174925
0.164349
0.152289
0.140844
0.132436
0.128647
0.126911
0.126004
0.124787
0.124088
0.123609
0.122635
0.122225
0.122091
0.121944
0.121768
0.12178
0.121928
0.122218
0.122638
0.123239
0.124055
0.12467
0.124875
0.124908
0.125344
0.125554
0.125344
0.12474
0.124204
0.123333
0.121783
0.120497
0.120028
0.120169
0.122061
0.134172
0.154447
0.169836
0.181597
0.196953
0.221591
0.232318
0.228133
0.208527
0.193673
0.185429
0.177802
0.170449
0.172063
0.17939
0.180126
0.187227
0.211763
0.273241
0.618893
0.964798
1.02364
1.01161
0.944012
0.409657
0.0709893
0.0404638
0.0337675
0.0295733
0.0265803
0.0245348
0.0224842
0.0216287
0.0211165
0.0209548
0.0209474
0.0212005
0.0216585
0.0218732
0.0219921
0.0220366
0.0218603
0.0211036
0.020003
0.0186542
0.0169357
0.0152674
0.014245
0.0138531
0.0139249
0.0139569
0.0139681
0.0139465
0.013866
0.0137644
0.0136716
0.0135959
0.0134902
0.0133431
0.013217
0.0131382
0.0130658
0.0130053
0.0129851
0.0129651
0.012989
0.0130215
0.0130538
0.0130705
0.0130892
0.0131335
0.013246
0.0136146
0.0149579
0.0172393
0.0183253
0.0188455
0.0198051
0.0220654
0.0241262
0.0273138
0.0335383
0.0588694
0.209787
0.411042
0.511177
0.585032
0.676137
0.802493
0.856726
0.766791
0.374647
0.14034
0.0736751
0.0549568
0.0481066
0.0453784
0.0428632
0.0411376
0.0397314
0.0391731
0.0391023
0.0393551
0.0394658
0.0393713
0.039085
0.0386297
0.0378593
0.036771
0.0352583
0.0332749
0.0308114
0.028194
0.0258441
0.0240836
0.0227609
0.0217936
0.0211384
0.0207109
0.0204915
0.0204732
0.0205911
0.0209605
0.0213779
0.0220467
0.0234271
0.0272362
0.0314637
0.170114
0.183495
0.184028
0.156883
0.150003
0.152454
0.145703
0.127757
0.122118
0.119679
0.117643
0.120971
0.12947
0.133175
0.134029
0.131463
0.129016
0.125959
0.123644
0.122803
0.122477
0.122251
0.12158
0.120379
0.119099
0.118198
0.117466
0.116727
0.116266
0.115895
0.115777
0.11612
0.116795
0.117858
0.119223
0.121023
0.123162
0.12548
0.127803
0.130055
0.132078
0.134501
0.137466
0.140362
0.143017
0.1442
0.143134
0.138294
0.131318
0.124333
0.119452
0.118482
0.120358
0.126733
0.146341
0.164617
0.171571
0.186994
0.206692
0.205291
0.179677
0.158716
0.154823
0.155073
0.156885
0.165721
0.202359
0.215114
0.206056
0.202895
0.221439
0.39139
0.495303
0.771902
0.925806
0.477645
0.128451
0.0370009
0.0253345
0.0219062
0.0197585
0.0186413
0.0178916
0.0172795
0.0169957
0.0166579
0.0164652
0.0163859
0.016366
0.0163722
0.0163923
0.016429
0.0164869
0.0165658
0.0166717
0.0167357
0.0167259
0.0166427
0.016605
0.0165343
0.016365
0.0160442
0.0157309
0.0154797
0.0153189
0.0151874
0.0150331
0.014976
0.0149552
0.0148917
0.014773
0.0146919
0.0145644
0.0142687
0.0138533
0.0135402
0.013034
0.0125788
0.0120684
0.0115585
0.0111131
0.0107434
0.0104115
0.01005
0.00973927
0.00959156
0.00953823
0.00946206
0.00919399
0.00900731
0.00897252
0.008812
0.0088428
0.0105556
0.020047
0.0600959
0.20314
0.262542
0.240757
0.237409
0.321285
0.429162
0.430828
0.280934
0.119214
0.0687839
0.053532
0.0486552
0.0472457
0.0468379
0.0467489
0.0467358
0.0466587
0.0464409
0.046206
0.0461673
0.0463875
0.0467716
0.0473608
0.0481791
0.0490485
0.0497803
0.0503445
0.0501577
0.0488109
0.0460467
0.0415933
0.0356326
0.0295782
0.0250446
0.0215362
0.0188089
0.0166847
0.0150874
0.0141776
0.014056
0.0144433
0.0165683
0.021417
0.0262108
0.154501
0.120862
0.122996
0.137884
0.147185
0.144809
0.11672
0.104835
0.104952
0.107143
0.109664
0.113977
0.121782
0.123866
0.124114
0.124112
0.123128
0.121558
0.119711
0.117896
0.115434
0.112066
0.107933
0.103259
0.0981777
0.0929434
0.0877965
0.0832228
0.0791312
0.0759762
0.073905
0.0728463
0.0724634
0.0734286
0.0754518
0.0789448
0.0835776
0.0894352
0.0966457
0.104926
0.114043
0.1227
0.130773
0.138702
0.146244
0.153376
0.15908
0.162688
0.163302
0.157844
0.142613
0.129849
0.123922
0.123141
0.124645
0.129791
0.144801
0.163819
0.174527
0.175586
0.171089
0.159318
0.153773
0.152055
0.152254
0.157319
0.197551
0.258617
0.262834
0.23574
0.228059
0.265427
0.447805
0.735182
0.44513
0.126699
0.0406788
0.0253418
0.023309
0.0226438
0.0223545
0.0223302
0.0221822
0.0215432
0.0210911
0.0205321
0.0198488
0.0191057
0.0185893
0.0182594
0.0176688
0.0173079
0.0170615
0.0166718
0.0162851
0.0157982
0.0151273
0.0144524
0.0137156
0.0129056
0.0124884
0.0123654
0.0123335
0.0120823
0.0120084
0.0119347
0.0118315
0.0117892
0.012067
0.0124061
0.0130002
0.0138469
0.0146272
0.0151543
0.0154421
0.0155997
0.0156334
0.0154925
0.0152159
0.0148312
0.0142626
0.0135131
0.0126625
0.0117907
0.0109972
0.010403
0.0100647
0.00973846
0.00898041
0.00763096
0.00706916
0.00702087
0.00687239
0.0068653
0.00787408
0.0138029
0.0463939
0.108264
0.119514
0.141745
0.277936
0.400086
0.381718
0.196401
0.0842387
0.0574727
0.0482231
0.0425064
0.0379538
0.0343772
0.0315568
0.0297603
0.0288706
0.0301175
0.0346564
0.0384886
0.0403107
0.0410499
0.0413146
0.0415711
0.0422399
0.0440716
0.0473071
0.0503272
0.0517681
0.0523632
0.05221
0.0511944
0.0477675
0.0410423
0.033542
0.0267051
0.020944
0.0162216
0.0121852
0.00975718
0.00828412
0.00767918
0.00765071
0.00885718
0.145491
0.0951039
0.0786183
0.120993
0.132781
0.111459
0.105925
0.105623
0.108117
0.112004
0.114313
0.11883
0.121485
0.121991
0.120969
0.118637
0.115109
0.109802
0.101769
0.0898125
0.0736634
0.0601405
0.0489961
0.0377653
0.0316127
0.0247898
0.0208252
0.0184133
0.01625
0.0152613
0.0143627
0.0138524
0.01363
0.0136235
0.0140649
0.0150309
0.0166148
0.0190281
0.022571
0.0277847
0.0353813
0.0465387
0.0611761
0.0792116
0.100561
0.124074
0.144218
0.160009
0.169819
0.173903
0.17316
0.159996
0.139775
0.128926
0.125449
0.125429
0.127292
0.133634
0.151669
0.161645
0.162214
0.160092
0.155526
0.15232
0.151628
0.154491
0.184591
0.270793
0.289311
0.262927
0.233959
0.267688
0.507528
0.466824
0.153655
0.049232
0.028826
0.0264951
0.028462
0.0298822
0.0304268
0.0301452
0.0297845
0.0288658
0.0280101
0.0271174
0.0266743
0.025782
0.0247657
0.0240948
0.0232161
0.0222371
0.0214092
0.0203611
0.0191587
0.0177949
0.0159313
0.0136359
0.0109897
0.00966299
0.00944621
0.00961295
0.0103536
0.011011
0.011248
0.0112616
0.0106888
0.00967974
0.00893022
0.00815672
0.00750027
0.00720702
0.00717607
0.00801233
0.00937485
0.0110068
0.0126338
0.0139469
0.0146537
0.0149932
0.0150264
0.0147348
0.0141788
0.0133992
0.0123484
0.0112825
0.010479
0.00999694
0.00969927
0.0094358
0.00933622
0.00934626
0.00940137
0.00960551
0.0104748
0.0133447
0.0240927
0.0473744
0.060301
0.0955634
0.265624
0.370403
0.30895
0.126047
0.0623179
0.0474402
0.0415771
0.0382892
0.0365658
0.0356615
0.0366969
0.0383658
0.0401271
0.0414212
0.042044
0.0422845
0.0423314
0.0417328
0.0410106
0.0401162
0.0389216
0.037397
0.0363207
0.0384129
0.0426711
0.046917
0.0504283
0.0526974
0.0539134
0.0542883
0.0541515
0.0532599
0.0513966
0.0476866
0.0411739
0.0323151
0.0239465
0.0171542
0.0125588
0.0110239
0.119066
0.0711764
0.0756848
0.107469
0.104147
0.100676
0.107117
0.113658
0.115982
0.116864
0.117735
0.118769
0.118979
0.115573
0.109388
0.0987884
0.0825103
0.0611777
0.0450106
0.0299363
0.022767
0.0156651
0.0118769
0.00925954
0.00750819
0.00662556
0.00613122
0.00588738
0.00577524
0.00565448
0.00555378
0.00526369
0.00482072
0.00454086
0.00415435
0.00374023
0.00354924
0.00346675
0.00354991
0.00402018
0.00490968
0.0064384
0.00903176
0.0134003
0.0209837
0.0347167
0.0605459
0.0974763
0.137721
0.16505
0.178778
0.181303
0.174613
0.150896
0.132505
0.125665
0.124588
0.12528
0.1285
0.138369
0.149757
0.153555
0.153484
0.152609
0.151583
0.153919
0.182238
0.27824
0.300397
0.266711
0.242243
0.325316
0.496679
0.209798
0.0663335
0.0339129
0.0297887
0.031882
0.0330191
0.0321649
0.0315715
0.0305103
0.0300234
0.0291356
0.0283538
0.0274162
0.0267808
0.0258851
0.0249117
0.0240808
0.0231198
0.022011
0.0208837
0.0193319
0.0172217
0.0143141
0.0103045
0.00861433
0.00814389
0.00840827
0.010455
0.0145604
0.0190801
0.0217173
0.022837
0.022836
0.0212551
0.0181978
0.0155872
0.0125584
0.00922438
0.0071236
0.00547402
0.00447121
0.00397236
0.00371803
0.00405844
0.00511807
0.00704267
0.0092935
0.011474
0.0130408
0.0136616
0.0136916
0.013165
0.0121932
0.0110199
0.0099549
0.00947157
0.00946737
0.00950622
0.00956769
0.00971466
0.010026
0.0111737
0.017082
0.0335286
0.0431311
0.0536551
0.0886642
0.251089
0.330549
0.246082
0.0931916
0.0522339
0.0434602
0.0401675
0.0384298
0.0381448
0.0391495
0.0400642
0.0413436
0.0429956
0.0449335
0.046835
0.0479155
0.0482701
0.0469908
0.0449333
0.0425143
0.0400543
0.0372017
0.0342809
0.0324332
0.0330398
0.0358264
0.039826
0.0439391
0.0474995
0.0500694
0.0515777
0.0521835
0.052202
0.0517933
0.0502846
0.046274
0.0371105
0.0271311
0.018413
0.0132421
0.111509
0.0612433
0.0695156
0.0802326
0.096177
0.108163
0.114006
0.116067
0.116399
0.116464
0.11581
0.113459
0.105876
0.0908979
0.0662574
0.047514
0.0302692
0.0216887
0.0137995
0.0101869
0.00821507
0.0071353
0.00668017
0.00652676
0.00651718
0.00678732
0.00709681
0.00734892
0.00756916
0.00764174
0.00744166
0.00686682
0.00601816
0.00537087
0.00445379
0.00355214
0.00291366
0.00241077
0.00192118
0.00164743
0.00144462
0.00136615
0.00150343
0.00192786
0.00287468
0.00488679
0.00928408
0.0195316
0.0456394
0.0994731
0.153027
0.179987
0.185777
0.182238
0.161181
0.135852
0.125394
0.12297
0.123273
0.126213
0.12902
0.132949
0.144265
0.150482
0.150144
0.153345
0.188736
0.291904
0.317745
0.283561
0.283562
0.382745
0.355673
0.0971823
0.0417887
0.0337051
0.0335013
0.0344309
0.0325356
0.0301392
0.0274436
0.0256047
0.0244871
0.0236728
0.0232415
0.0229289
0.0226564
0.0221846
0.0215503
0.0206672
0.0193687
0.0177309
0.0159077
0.0132347
0.00966318
0.00811308
0.00777911
0.00829507
0.0105211
0.0155289
0.0259909
0.0350488
0.0374758
0.0378415
0.0358804
0.0330129
0.0308563
0.0292784
0.0271862
0.0249128
0.022343
0.0176983
0.012579
0.00782911
0.00502921
0.00334513
0.00247108
0.00206359
0.001902
0.00213535
0.00295783
0.00467503
0.00716215
0.00960928
0.0113073
0.0117615
0.0113986
0.0102657
0.00923391
0.00880596
0.00878482
0.00887442
0.00918746
0.00976813
0.0110679
0.016596
0.0393778
0.0511374
0.0594983
0.0923194
0.241111
0.298305
0.206176
0.0783191
0.0484092
0.0425629
0.0402834
0.0396616
0.0398562
0.0406745
0.0421622
0.0447716
0.0487878
0.0530864
0.0562613
0.0577909
0.0581706
0.0556747
0.0515343
0.0465272
0.0417015
0.0376831
0.0341253
0.0301988
0.0285851
0.0294254
0.0328456
0.0375853
0.0421725
0.0457224
0.0480541
0.0493644
0.0499587
0.0501289
0.0500861
0.0495054
0.0471274
0.0394064
0.0283519
0.0191113
0.0955349
0.0570021
0.0700165
0.089256
0.107523
0.113888
0.115319
0.115643
0.114869
0.112192
0.105685
0.0916835
0.0629835
0.0419457
0.0282177
0.018568
0.0128638
0.0101597
0.00881856
0.00833455
0.00819746
0.00820157
0.00922581
0.0104358
0.0120788
0.0136547
0.014986
0.0157975
0.0161853
0.016278
0.0155381
0.0143049
0.0128
0.0110465
0.00878044
0.00674273
0.00494528
0.00345416
0.00235411
0.00172265
0.00127563
0.00099563
0.000800272
0.000700145
0.000689468
0.000833441
0.00130657
0.00271389
0.00698315
0.0207681
0.0680603
0.140374
0.176705
0.184437
0.180696
0.158838
0.132831
0.122576
0.121004
0.122078
0.124514
0.126091
0.134353
0.146357
0.146217
0.152927
0.214162
0.312848
0.338031
0.327761
0.338002
0.366792
0.165167
0.0557098
0.0368974
0.0347489
0.0356095
0.0330756
0.026936
0.0213387
0.0174811
0.0150967
0.0136438
0.0129956
0.0125308
0.012026
0.0116583
0.0115756
0.0115241
0.0112927
0.0106708
0.00967128
0.0083882
0.00730001
0.0069215
0.00709573
0.00869889
0.0118138
0.0198455
0.0356885
0.043746
0.045844
0.0461621
0.043916
0.038791
0.0344258
0.032122
0.0309095
0.0292192
0.0279054
0.0273166
0.0264145
0.0247759
0.021155
0.0148421
0.00876663
0.00505444
0.00290863
0.00182194
0.00130945
0.0011027
0.00107147
0.00133543
0.00213956
0.00390752
0.00656746
0.00876363
0.00945146
0.00917276
0.00830558
0.00785125
0.00775699
0.00788782
0.0084613
0.00990567
0.0140924
0.034746
0.0598069
0.0721794
0.106826
0.239683
0.275043
0.182701
0.0716865
0.0472243
0.0424581
0.0408822
0.0404137
0.0408536
0.0424983
0.0457703
0.0516515
0.0573483
0.0627317
0.0657094
0.0668964
0.0669861
0.0636017
0.0574071
0.0492075
0.0424043
0.0371293
0.0334722
0.0292594
0.0250194
0.0228814
0.0229957
0.0256699
0.0325211
0.039453
0.0445339
0.0475165
0.048914
0.0494072
0.0494897
0.0493677
0.0484958
0.0449471
0.0354373
0.0252914
0.0733041
0.0642034
0.0875558
0.106109
0.112571
0.114212
0.114558
0.113031
0.108245
0.0971708
0.0737964
0.0465781
0.0297292
0.0198396
0.0141339
0.0113851
0.0102017
0.0097432
0.00961366
0.0104958
0.0122426
0.0150345
0.0186054
0.0224198
0.0262904
0.0288505
0.0309626
0.0319767
0.0323827
0.0321057
0.0307096
0.0285556
0.0253468
0.0214804
0.0179985
0.0141499
0.0102812
0.00700612
0.00454679
0.00281826
0.00171335
0.00110235
0.000780603
0.000595198
0.000476667
0.000416814
0.000409369
0.000521455
0.00107319
0.0033668
0.0129592
0.0569792
0.136699
0.173604
0.179971
0.174018
0.14639
0.123974
0.116717
0.115996
0.116736
0.119307
0.133161
0.14204
0.140696
0.155334
0.25261
0.335185
0.348547
0.33996
0.333342
0.262215
0.0823322
0.0422023
0.0370805
0.0370089
0.0344922
0.026591
0.0198375
0.0168927
0.0145932
0.0117156
0.00973551
0.00892761
0.00848587
0.00792085
0.00700723
0.00634594
0.00613068
0.00600171
0.00576114
0.00552279
0.00544178
0.00553402
0.00646626
0.0081012
0.0119198
0.0209784
0.0376848
0.0477959
0.0507493
0.0514373
0.050795
0.0462848
0.04005
0.0343339
0.0318156
0.0306343
0.0291642
0.0279967
0.0276011
0.0274581
0.0274458
0.0269969
0.0253702
0.0215294
0.0145308
0.00850267
0.0047992
0.00262244
0.00145235
0.000911197
0.000685378
0.000614525
0.000701175
0.00116191
0.00248516
0.00491183
0.00692645
0.00749304
0.00728602
0.00703177
0.00707123
0.0073699
0.00833905
0.0112625
0.0251244
0.0537798
0.0733237
0.123245
0.245211
0.260933
0.16927
0.0696351
0.0471381
0.0425982
0.0412303
0.0410889
0.0422377
0.0455266
0.0525363
0.0594611
0.0651127
0.0696889
0.0722349
0.073271
0.0732692
0.0707784
0.0644045
0.0541064
0.044527
0.0367303
0.0305952
0.0271453
0.023382
0.0199935
0.0185804
0.0185537
0.0200257
0.0261654
0.0352199
0.0420668
0.0461153
0.0480137
0.0486488
0.0487067
0.04834
0.0462713
0.0389007
0.0285484
0.0739825
0.0865537
0.103901
0.110809
0.112809
0.113323
0.111412
0.104947
0.0899958
0.0621627
0.0386873
0.0240108
0.0168853
0.0134497
0.0119804
0.0114233
0.0112676
0.012689
0.0158494
0.0214366
0.0289656
0.0350358
0.0405337
0.0440075
0.0462908
0.0478665
0.048605
0.0488662
0.0488026
0.0482243
0.047448
0.0462086
0.044235
0.0408318
0.0355358
0.0287148
0.0217181
0.0151753
0.00963364
0.00590763
0.0033946
0.00181537
0.00101387
0.000628981
0.000456087
0.000360771
0.000304063
0.000279608
0.000321686
0.000642785
0.00246823
0.0125178
0.0687116
0.144759
0.172775
0.174292
0.160717
0.130173
0.11605
0.112204
0.11204
0.114486
0.130139
0.132547
0.133092
0.167856
0.294952
0.349002
0.349623
0.33242
0.284914
0.125319
0.0530415
0.0397723
0.0378515
0.0367108
0.0298894
0.0211899
0.0180365
0.0165038
0.0144066
0.01165
0.00939489
0.00817642
0.00752155
0.00699019
0.00613565
0.00501703
0.00455948
0.00442119
0.00438581
0.00441568
0.00470408
0.00549494
0.00708334
0.0106641
0.0187351
0.0347169
0.0484893
0.0530649
0.0544458
0.0546256
0.0529754
0.0477783
0.0400646
0.0318354
0.0289799
0.0279901
0.0275383
0.0266315
0.0264999
0.0269349
0.0276142
0.0278394
0.0277034
0.0268291
0.0247735
0.0194258
0.0122921
0.00732988
0.00407714
0.00211873
0.00107234
0.000600716
0.000424221
0.000380259
0.000459971
0.000875963
0.00229208
0.00471376
0.00591404
0.00625112
0.00642232
0.00668295
0.00729584
0.00916006
0.0172947
0.0404446
0.067272
0.140898
0.246201
0.252405
0.163482
0.0699397
0.0473409
0.042765
0.0415798
0.0420024
0.044606
0.0520416
0.0598345
0.065778
0.0704141
0.0743609
0.0770979
0.0792056
0.0802736
0.0790506
0.0734782
0.0623869
0.0496105
0.0382347
0.0298496
0.0234507
0.0198979
0.017045
0.0151273
0.0147785
0.01484
0.0158035
0.020625
0.0307736
0.0387469
0.0435456
0.0458325
0.0465887
0.0465899
0.0456445
0.0407826
0.0303147
0.0833196
0.100611
0.108468
0.111282
0.112046
0.110409
0.103215
0.0849872
0.0581042
0.0356181
0.0226933
0.0165455
0.0139885
0.0130323
0.0127021
0.0137307
0.0171845
0.0247027
0.0335539
0.0416188
0.0460079
0.0501451
0.0520985
0.0532953
0.0538344
0.0540482
0.0540909
0.0536985
0.0532905
0.0526511
0.0518424
0.0510568
0.0504261
0.0495541
0.0479582
0.0449144
0.0399183
0.0320484
0.0208919
0.012395
0.00723876
0.00378349
0.00187414
0.00093394
0.000527684
0.000363981
0.000287885
0.000241882
0.000220061
0.000251882
0.000567499
0.002793
0.0177392
0.0927118
0.154357
0.16955
0.164495
0.13784
0.117599
0.110744
0.1099
0.11261
0.123096
0.123801
0.128264
0.185079
0.310122
0.347689
0.336971
0.28955
0.155392
0.070053
0.0437874
0.0397785
0.038931
0.0344394
0.0241228
0.0198523
0.0181838
0.0170414
0.0154333
0.0130034
0.0105152
0.00870701
0.00776259
0.00720407
0.00640692
0.00519079
0.00457508
0.00441132
0.00438051
0.00443971
0.00483005
0.00598263
0.00874005
0.0150739
0.0276955
0.0447585
0.0531495
0.0556955
0.0563309
0.0563442
0.0544175
0.0491617
0.0398441
0.0310258
0.0281738
0.0270105
0.0265039
0.0260086
0.0257871
0.0260375
0.0272106
0.0280294
0.028279
0.0282211
0.0278364
0.0265874
0.0226375
0.0154222
0.00968382
0.00556922
0.00292282
0.00140842
0.000662275
0.000363172
0.000276458
0.000279844
0.000441082
0.00124564
0.00331359
0.00462178
0.00532052
0.0058318
0.00644187
0.0077843
0.0119715
0.0243741
0.0549905
0.151407
0.245716
0.248316
0.163778
0.0714073
0.0478801
0.0429897
0.0420979
0.0433036
0.0500011
0.0597193
0.0665437
0.0711285
0.0746629
0.0792263
0.0836443
0.0885877
0.0911811
0.09019
0.0830045
0.0713415
0.057278
0.0429711
0.0311696
0.0228768
0.0168612
0.0129948
0.0108501
0.0105939
0.0107856
0.0111954
0.0122319
0.016413
0.0264089
0.0344416
0.0393836
0.041841
0.0425777
0.042389
0.0400394
0.0313911
0.0879131
0.10402
0.109273
0.110754
0.109981
0.103647
0.0854789
0.0596171
0.0369206
0.0234838
0.017325
0.0148922
0.0141194
0.0139347
0.0158555
0.0215141
0.033042
0.04194
0.0487268
0.0529867
0.0550935
0.0561894
0.0565904
0.0567253
0.0567668
0.0568901
0.0569741
0.0567773
0.0560112
0.0550899
0.0537687
0.0524252
0.0515033
0.0510664
0.0505762
0.0498422
0.04716
0.0439711
0.0390462
0.0260434
0.014162
0.00762879
0.0036961
0.00168038
0.000781131
0.000433961
0.000302205
0.000240663
0.00020553
0.000193806
0.000237795
0.000681773
0.00418772
0.0296473
0.115175
0.158666
0.162461
0.145909
0.120605
0.110837
0.109289
0.112119
0.119067
0.117914
0.123886
0.185976
0.292256
0.320377
0.2788
0.177456
0.0887009
0.0515591
0.0419506
0.0401504
0.0388775
0.0298663
0.0223165
0.0200576
0.0192477
0.0189093
0.0181921
0.0167132
0.0146343
0.0120487
0.00984937
0.00875942
0.00801407
0.00691023
0.00571676
0.00525728
0.00513708
0.00515776
0.00566086
0.00750762
0.0122746
0.0215669
0.0353788
0.0502287
0.0556335
0.0571058
0.0573992
0.0572674
0.0552351
0.0497788
0.0396313
0.031244
0.0284343
0.0270576
0.0264954
0.0260052
0.0256893
0.0257672
0.0270093
0.0282903
0.0288847
0.028983
0.0290958
0.0290116
0.0281595
0.0243911
0.0175567
0.011347
0.00667702
0.00354344
0.00169785
0.000753973
0.00035352
0.000234709
0.000227474
0.000329069
0.000913544
0.00245862
0.00378792
0.00471602
0.00543996
0.00665563
0.00966632
0.0184546
0.0457873
0.148333
0.242694
0.245869
0.166743
0.0746631
0.0489679
0.043342
0.0427567
0.0462093
0.0569938
0.0662843
0.0717962
0.0754934
0.0799698
0.0870533
0.0948118
0.104147
0.108858
0.107747
0.0973157
0.0842915
0.0669557
0.0497112
0.0348946
0.0238791
0.01653
0.0114183
0.00809967
0.00687116
0.00693573
0.00729353
0.0079783
0.00933787
0.0135803
0.0222436
0.0290344
0.0335743
0.035857
0.0363469
0.0355673
0.0306047
0.0865206
0.103714
0.108677
0.109343
0.10432
0.0910609
0.0658737
0.0417945
0.0264504
0.0189032
0.015903
0.0150455
0.0149016
0.0168167
0.024363
0.0369262
0.0462835
0.0529096
0.056595
0.0583721
0.0591831
0.0597998
0.0608043
0.0619117
0.0631497
0.0639863
0.0644192
0.0645736
0.0640212
0.0627167
0.0603656
0.0567295
0.0525432
0.0505972
0.049917
0.0507606
0.0498005
0.047288
0.0454104
0.0408579
0.0261761
0.013712
0.00668284
0.00298404
0.00126715
0.000589041
0.000342603
0.000254913
0.000210532
0.000187649
0.000185748
0.000257738
0.00099461
0.00705837
0.0524285
0.133651
0.157364
0.151856
0.126479
0.112189
0.109393
0.111738
0.11622
0.112305
0.114806
0.165475
0.227969
0.241399
0.186703
0.107192
0.061664
0.0454711
0.042166
0.0419681
0.0391151
0.0289269
0.0222912
0.0206532
0.0203296
0.0202654
0.0201759
0.0198823
0.0192446
0.0181332
0.0164756
0.01463
0.0131107
0.0117298
0.00991655
0.00847344
0.00804915
0.00795969
0.00834114
0.010829
0.0162514
0.0254339
0.039596
0.0526291
0.0569671
0.0578585
0.0580031
0.0575361
0.0554552
0.0493542
0.0376954
0.0317154
0.0294945
0.0277565
0.0270113
0.0264086
0.0256836
0.0254612
0.0265575
0.0283603
0.0297184
0.0306338
0.0308565
0.0307187
0.0304998
0.0298164
0.0255778
0.0185755
0.0122158
0.00722168
0.0038228
0.00181375
0.000784619
0.000350203
0.000222502
0.000218915
0.00031473
0.000808271
0.00217909
0.00342014
0.00429301
0.00548911
0.00814832
0.0154288
0.0399326
0.141672
0.23833
0.243732
0.174022
0.0794682
0.0503533
0.0439599
0.043901
0.0499436
0.0630223
0.0721587
0.0773373
0.0813281
0.0881654
0.0995027
0.111115
0.119867
0.122769
0.122559
0.117219
0.103092
0.0820932
0.05896
0.0400938
0.0263636
0.017136
0.011235
0.00729389
0.00508471
0.00460819
0.00467535
0.00500044
0.00574626
0.00743647
0.0120849
0.0180942
0.0231398
0.0267919
0.0284287
0.0284456
0.0267889
0.0847726
0.102508
0.107113
0.10736
0.0997134
0.0788444
0.0532192
0.0325919
0.0220159
0.0174094
0.0159082
0.0154904
0.0166075
0.0230811
0.0354715
0.0475377
0.0540142
0.0581196
0.0599984
0.0608998
0.0618556
0.0633584
0.0649639
0.0661862
0.0668979
0.0672464
0.0673755
0.0673532
0.0673027
0.0670803
0.066559
0.0653054
0.0618612
0.0541074
0.0492142
0.0483501
0.0501216
0.048807
0.0474165
0.0454426
0.0383311
0.021503
0.0103151
0.0045268
0.00189602
0.000814507
0.000408246
0.000268579
0.000219409
0.000192677
0.00017919
0.000183507
0.000315083
0.00166696
0.0130369
0.0844059
0.144716
0.151659
0.136495
0.115235
0.10989
0.11144
0.114424
0.108474
0.107137
0.133189
0.17178
0.173342
0.125901
0.0752368
0.0512707
0.0437605
0.0429334
0.0438483
0.0405811
0.0294248
0.0226957
0.0212546
0.0209951
0.0209962
0.0211114
0.021329
0.0215983
0.0217923
0.0218481
0.0217122
0.0212183
0.0201328
0.018311
0.0158675
0.0137187
0.01308
0.0131599
0.0151756
0.0215191
0.0305802
0.0420887
0.0543224
0.0588216
0.0592122
0.058452
0.0574146
0.0542408
0.0462762
0.0351339
0.0320845
0.0305982
0.0291331
0.0283743
0.0275112
0.0260124
0.0252379
0.0253138
0.0271759
0.0294725
0.0312217
0.0324513
0.0331593
0.0331623
0.0326296
0.0311507
0.0260042
0.0189835
0.0124051
0.00721583
0.00374132
0.00172873
0.000736662
0.000335374
0.00022672
0.000233332
0.000354255
0.000944451
0.00215631
0.00309632
0.00431419
0.0068828
0.0135477
0.0358921
0.1321
0.232711
0.241742
0.18352
0.0861435
0.0524398
0.0446655
0.0453793
0.0553193
0.0700173
0.0785192
0.0831769
0.0885705
0.101087
0.114713
0.121871
0.124501
0.12586
0.126362
0.125768
0.120911
0.10389
0.0744896
0.0479835
0.0299731