/*--------------------------------*- C++ -*----------------------------------*\
  =========                 |
  \\      /  F ield         | OpenFOAM: The Open Source CFD Toolbox
   \\    /   O peration     | Website:  https://openfoam.org
    \\  /    A nd           | Version:  6
     \\/     M anipulation  |
\*---------------------------------------------------------------------------*/
FoamFile
{
    version     2.0;
    format      ascii;
    class       surfaceScalarField;
    location    "0.3";
    object      phi_0;
}
// * * * * * * * * * * * * * * * * * * * * * * * * * * * * * * * * * * * * * //

dimensions      [0 3 -1 0 0 0 0];

internalField   nonuniform List<scalar> 
24170
(
3.1677e-06
2.16267e-07
3.00636e-06
1.61347e-07
2.90444e-06
1.01917e-07
2.81843e-06
8.60067e-08
2.73057e-06
8.78652e-08
2.6316e-06
9.89666e-08
2.52657e-06
1.05027e-07
2.42851e-06
9.80646e-08
2.34666e-06
8.18458e-08
2.27939e-06
6.72703e-08
2.22126e-06
5.81375e-08
2.16438e-06
5.68712e-08
2.10789e-06
5.64986e-08
2.04681e-06
6.10786e-08
1.98722e-06
5.95848e-08
1.92758e-06
5.96417e-08
1.8527e-06
7.48808e-08
8.32861e-08
1.76941e-06
3.43754e-06
2.0722e-07
3.45176e-06
1.47122e-07
3.47498e-06
7.87017e-08
3.49031e-06
7.06743e-08
3.49345e-06
8.47249e-08
3.48246e-06
1.09958e-07
3.46057e-06
1.26919e-07
3.43464e-06
1.23987e-07
3.41068e-06
1.05812e-07
3.39175e-06
8.61978e-08
3.37826e-06
7.16302e-08
3.36829e-06
6.68388e-08
3.35882e-06
6.59653e-08
3.34648e-06
7.34207e-08
3.32716e-06
7.89103e-08
3.30297e-06
8.38317e-08
3.27199e-06
1.05856e-07
1.07334e-07
3.24794e-06
3.61277e-06
1.92744e-07
3.64068e-06
1.19219e-07
3.65971e-06
5.96707e-08
3.67238e-06
5.80036e-08
3.69361e-06
6.34909e-08
3.72423e-06
7.93401e-08
3.75054e-06
1.00612e-07
3.7609e-06
1.13623e-07
3.75514e-06
1.11574e-07
3.74268e-06
9.86511e-08
3.73267e-06
8.16411e-08
3.73002e-06
6.9492e-08
3.73214e-06
6.38463e-08
3.73667e-06
6.88872e-08
3.73814e-06
7.74448e-08
3.73448e-06
8.74914e-08
3.73634e-06
1.03995e-07
1.0092e-07
3.74275e-06
3.91826e-06
6.19985e-08
3.95891e-06
7.85719e-08
3.95734e-06
6.12405e-08
3.95458e-06
6.0767e-08
3.96536e-06
5.27072e-08
3.98658e-06
5.81201e-08
4.00825e-06
7.89471e-08
4.0221e-06
9.97704e-08
4.02569e-06
1.07985e-07
4.02199e-06
1.02352e-07
4.01473e-06
8.8894e-08
4.00736e-06
7.68664e-08
4.00081e-06
7.03968e-08
3.99707e-06
7.26302e-08
3.99495e-06
7.9561e-08
3.9955e-06
8.6944e-08
4.00571e-06
9.37822e-08
8.84421e-08
4.01819e-06
4.21907e-06
1.81948e-08
4.27185e-06
2.57973e-08
4.28177e-06
5.13235e-08
4.26323e-06
7.93057e-08
4.23491e-06
8.10276e-08
4.21882e-06
7.42093e-08
4.22458e-06
7.31833e-08
4.2454e-06
7.89483e-08
4.26694e-06
8.64485e-08
4.27794e-06
9.13509e-08
4.27565e-06
9.11812e-08
4.26581e-06
8.67087e-08
4.25668e-06
7.95295e-08
4.25553e-06
7.37817e-08
4.26432e-06
7.07692e-08
4.28245e-06
6.88146e-08
4.3076e-06
6.86293e-08
6.71856e-08
4.32886e-06
4.5318e-06
-1.20759e-08
4.48847e-06
6.91303e-08
4.45985e-06
7.99385e-08
4.48681e-06
5.23481e-08
4.53979e-06
2.80495e-08
4.58699e-06
2.70119e-08
4.61048e-06
4.96852e-08
4.60835e-06
8.10788e-08
4.58899e-06
1.05815e-07
4.56304e-06
1.17294e-07
4.53852e-06
1.15701e-07
4.52014e-06
1.05094e-07
4.50973e-06
8.99366e-08
4.50785e-06
7.56663e-08
4.51386e-06
6.47507e-08
4.52532e-06
5.73547e-08
4.53995e-06
5.40056e-08
5.50582e-08
4.55208e-06
4.86099e-06
3.72509e-08
4.85183e-06
7.82901e-08
4.87021e-06
6.15541e-08
4.88871e-06
3.38521e-08
4.89536e-06
2.13986e-08
4.89186e-06
3.0505e-08
4.88658e-06
5.49676e-08
4.88517e-06
8.24866e-08
4.88772e-06
1.03265e-07
4.89047e-06
1.14551e-07
4.88927e-06
1.16899e-07
4.88291e-06
1.11454e-07
4.87329e-06
9.95617e-08
4.8641e-06
8.48508e-08
4.85834e-06
7.05117e-08
4.85662e-06
5.90705e-08
4.8588e-06
5.18251e-08
5.03451e-08
4.86352e-06
5.2301e-06
5.25143e-08
5.26772e-06
4.06709e-08
5.25714e-06
7.21337e-08
5.21599e-06
7.501e-08
5.17693e-06
6.04521e-08
5.15262e-06
5.48135e-08
5.14251e-06
6.50765e-08
5.14151e-06
8.34946e-08
5.14538e-06
9.93917e-08
5.15172e-06
1.08207e-07
5.15951e-06
1.09112e-07
5.16924e-06
1.01728e-07
5.18174e-06
8.70604e-08
5.19745e-06
6.91358e-08
5.21521e-06
5.27518e-08
5.23298e-06
4.13037e-08
5.24852e-06
3.62883e-08
3.72118e-08
5.26165e-06
5.4747e-06
-4.02715e-08
5.50433e-06
1.10493e-08
5.48695e-06
8.95096e-08
5.46943e-06
9.25332e-08
5.47041e-06
5.94681e-08
5.48865e-06
3.65707e-08
5.51399e-06
3.97377e-08
5.5361e-06
6.13891e-08
5.55127e-06
8.42168e-08
5.56242e-06
9.70617e-08
5.57467e-06
9.68604e-08
5.59186e-06
8.4536e-08
5.61448e-06
6.44438e-08
5.64052e-06
4.30963e-08
5.66609e-06
2.71768e-08
5.68781e-06
1.95827e-08
5.70348e-06
2.06219e-08
2.80808e-08
5.71261e-06
5.96437e-06
1.47942e-07
5.91606e-06
5.93596e-08
5.9458e-06
5.97663e-08
5.96016e-06
7.81786e-08
5.94131e-06
7.83205e-08
5.90672e-06
7.11559e-08
5.88175e-06
6.47086e-08
5.8831e-06
6.00372e-08
5.9125e-06
5.48221e-08
5.96014e-06
4.94178e-08
6.01251e-06
4.44897e-08
6.05806e-06
3.89902e-08
6.09075e-06
3.17549e-08
6.11046e-06
2.33862e-08
6.12095e-06
1.66825e-08
6.12716e-06
1.33734e-08
6.13297e-06
1.48153e-08
2.08738e-08
6.14017e-06
6.4321e-06
4.07806e-08
6.44566e-06
4.58014e-08
6.43377e-06
7.16603e-08
6.43221e-06
7.97379e-08
6.43711e-06
7.34222e-08
6.44698e-06
6.12807e-08
6.46173e-06
4.99628e-08
6.47986e-06
4.19067e-08
6.49774e-06
3.69437e-08
6.51154e-06
3.5611e-08
6.51945e-06
3.65851e-08
6.52218e-06
3.62555e-08
6.52228e-06
3.16574e-08
6.52295e-06
2.27189e-08
6.52601e-06
1.3618e-08
6.53158e-06
7.80706e-09
6.5378e-06
8.59793e-09
1.65428e-08
6.54213e-06
5.6959e-06
-1.08823e-08
5.70042e-06
4.12869e-08
5.72025e-06
5.1828e-08
5.72602e-06
7.39716e-08
5.72716e-06
7.22755e-08
5.73249e-06
5.59582e-08
5.73985e-06
4.25968e-08
5.74574e-06
3.60148e-08
5.74935e-06
3.33398e-08
5.75329e-06
3.16682e-08
5.7613e-06
2.85756e-08
5.77582e-06
2.17364e-08
5.79693e-06
1.05513e-08
5.82278e-06
-3.13356e-09
5.85115e-06
-1.4758e-08
5.8793e-06
-2.03392e-08
5.90539e-06
-1.74894e-08
-5.61135e-09
5.92754e-06
6.92503e-06
3.51558e-07
6.85629e-06
1.10026e-07
6.91858e-06
-1.04623e-08
6.95179e-06
4.07591e-08
6.94684e-06
7.72289e-08
6.94125e-06
6.15504e-08
6.95599e-06
2.78586e-08
6.98902e-06
2.98301e-09
7.03016e-06
-7.80297e-09
7.07254e-06
-1.07082e-08
7.11353e-06
-1.24185e-08
7.15049e-06
-1.52166e-08
7.17931e-06
-1.82705e-08
7.19569e-06
-1.95155e-08
7.19885e-06
-1.7923e-08
7.19122e-06
-1.27092e-08
7.17828e-06
-4.54108e-09
6.66468e-09
7.166e-06
8.53866e-06
4.98998e-08
8.67231e-06
-2.36254e-08
8.64305e-06
1.88044e-08
8.57017e-06
1.13636e-07
8.51144e-06
1.3596e-07
8.46941e-06
1.03576e-07
8.44916e-06
4.81089e-08
8.46076e-06
-8.61398e-09
8.50368e-06
-5.07275e-08
8.56535e-06
-7.23799e-08
8.62916e-06
-7.62214e-08
8.68136e-06
-6.7424e-08
8.71462e-06
-5.15269e-08
8.72869e-06
-3.3582e-08
8.72858e-06
-1.78141e-08
8.72102e-06
-5.15093e-09
8.71268e-06
3.79967e-09
1.12994e-08
8.70805e-06
1.04262e-05
-7.83084e-08
1.05419e-05
-1.39272e-07
1.05365e-05
2.41611e-08
1.05175e-05
1.32665e-07
1.05053e-05
1.48154e-07
1.05042e-05
1.04601e-07
1.05218e-05
3.05862e-08
1.05536e-05
-4.04325e-08
1.05828e-05
-7.9973e-08
1.05918e-05
-8.13423e-08
1.05732e-05
-5.76345e-08
1.05333e-05
-2.75284e-08
1.04867e-05
-4.93825e-09
1.04489e-05
4.25508e-09
1.04302e-05
8.62486e-10
1.04336e-05
-8.52953e-09
1.04571e-05
-1.96794e-08
-2.45425e-08
1.04929e-05
1.24586e-05
-7.44354e-08
1.24605e-05
-1.41154e-07
1.25752e-05
-9.05797e-08
1.27207e-05
-1.27484e-08
1.28116e-05
5.71716e-08
1.2837e-05
7.91943e-08
1.28298e-05
3.78281e-08
1.282e-05
-3.06816e-08
1.28148e-05
-7.47704e-08
1.28061e-05
-7.25648e-08
1.27865e-05
-3.80755e-08
1.27579e-05
1.12422e-09
1.27291e-05
2.37682e-08
1.27097e-05
2.37186e-08
1.27053e-05
5.29776e-09
1.27167e-05
-1.99344e-08
1.27415e-05
-4.45325e-08
-6.07536e-08
1.27777e-05
1.53848e-05
-3.86316e-07
1.54091e-05
-1.65429e-07
1.5338e-05
-1.94709e-08
1.5302e-05
2.32568e-08
1.53586e-05
5.91795e-10
1.54753e-05
-3.75096e-08
1.5571e-05
-5.7913e-08
1.55922e-05
-5.19106e-08
1.55452e-05
-2.77483e-08
1.54729e-05
-2.69608e-10
1.54159e-05
1.89146e-08
1.53918e-05
2.52324e-08
1.53968e-05
1.88345e-08
1.54165e-05
3.99084e-09
1.54366e-05
-1.48262e-08
1.54497e-05
-3.30636e-08
1.54543e-05
-4.90535e-08
-6.24158e-08
1.54559e-05
1.86986e-05
-8.61269e-08
1.87431e-05
-2.09944e-07
1.88639e-05
-1.40204e-07
1.89586e-05
-7.14859e-08
1.90153e-05
-5.60937e-08
1.9058e-05
-8.02226e-08
1.90999e-05
-9.97508e-08
1.9137e-05
-8.90773e-08
1.91646e-05
-5.52845e-08
1.91848e-05
-2.05494e-08
1.92055e-05
-1.77676e-09
1.92331e-05
-2.3134e-09
1.92675e-05
-1.56271e-08
1.93038e-05
-3.22307e-08
1.93345e-05
-4.55676e-08
1.93557e-05
-5.43082e-08
1.93662e-05
-5.9542e-08
-6.54858e-08
1.93693e-05
2.33144e-05
-8.4884e-08
2.3172e-05
-6.75875e-08
2.31715e-05
-1.39737e-07
2.32283e-05
-1.28218e-07
2.32072e-05
-3.4986e-08
2.31007e-05
2.62882e-08
2.29828e-05
1.8101e-08
2.29164e-05
-2.26812e-08
2.29164e-05
-5.53067e-08
2.29631e-05
-6.72171e-08
2.30274e-05
-6.61236e-08
2.30878e-05
-6.26245e-08
2.31339e-05
-6.17708e-08
2.31658e-05
-6.41265e-08
2.31883e-05
-6.80495e-08
2.32063e-05
-7.22989e-08
2.32229e-05
-7.61953e-08
-8.03412e-08
2.32378e-05
1.68155e-05
-8.03961e-08
1.68537e-05
-1.05753e-07
1.69246e-05
-2.10646e-07
1.69686e-05
-1.7226e-07
1.69852e-05
-5.15661e-08
1.69801e-05
3.1395e-08
1.69709e-05
2.73363e-08
1.69859e-05
-3.77415e-08
1.70359e-05
-1.05271e-07
1.71031e-05
-1.34438e-07
1.71579e-05
-1.20934e-07
1.71797e-05
-8.43541e-08
1.71654e-05
-4.75246e-08
1.71268e-05
-2.55371e-08
1.70815e-05
-2.27374e-08
1.7044e-05
-3.48273e-08
1.70231e-05
-5.52981e-08
-7.43191e-08
1.70171e-05
1.47857e-05
-3.33318e-08
1.47239e-05
-4.40285e-08
1.46421e-05
-1.28806e-07
1.4628e-05
-1.58142e-07
1.47153e-05
-1.38885e-07
1.48565e-05
-1.09849e-07
1.49677e-05
-8.38075e-08
1.49916e-05
-6.16968e-08
1.49326e-05
-4.62104e-08
1.48363e-05
-3.82027e-08
1.47503e-05
-3.49174e-08
1.46997e-05
-3.37496e-08
1.46869e-05
-3.47206e-08
1.47011e-05
-3.9699e-08
1.47282e-05
-4.99046e-08
1.47574e-05
-6.40155e-08
1.47817e-05
-7.96039e-08
-9.58571e-08
1.48033e-05
1.28632e-05
3.69526e-08
1.28244e-05
-5.16156e-09
1.27436e-05
-4.80356e-08
1.27027e-05
-1.1726e-07
1.27402e-05
-1.764e-07
1.28253e-05
-1.94959e-07
1.29087e-05
-1.67132e-07
1.2958e-05
-1.10983e-07
1.29669e-05
-5.51068e-08
1.29492e-05
-2.05829e-08
1.29269e-05
-1.26037e-08
1.29167e-05
-2.35237e-08
1.29231e-05
-4.11048e-08
1.29388e-05
-5.53824e-08
1.29506e-05
-6.1717e-08
1.29478e-05
-6.12046e-08
1.29252e-05
-5.7061e-08
-5.08921e-08
1.28803e-05
1.10591e-05
2.95398e-08
1.10663e-05
-1.23752e-08
1.11154e-05
-9.71159e-08
1.11273e-05
-1.29151e-07
1.10838e-05
-1.32891e-07
1.10263e-05
-1.37445e-07
1.09939e-05
-1.34692e-07
1.10006e-05
-1.17684e-07
1.10385e-05
-9.30492e-08
1.10874e-05
-6.94723e-08
1.11263e-05
-5.15258e-08
1.11434e-05
-4.06447e-08
1.11387e-05
-3.64021e-08
1.11208e-05
-3.74329e-08
1.11016e-05
-4.25066e-08
1.10903e-05
-4.99607e-08
1.10922e-05
-5.89088e-08
-7.12764e-08
1.11126e-05
9.71634e-06
1.24777e-07
9.64323e-06
6.07378e-08
9.66075e-06
-1.14634e-07
9.72293e-06
-1.91333e-07
9.77632e-06
-1.86284e-07
9.78425e-06
-1.45376e-07
9.74922e-06
-9.96562e-08
9.70147e-06
-6.99352e-08
9.66893e-06
-6.0509e-08
9.66098e-06
-6.15214e-08
9.67146e-06
-6.20077e-08
9.689e-06
-5.81901e-08
9.70421e-06
-5.1606e-08
9.71273e-06
-4.59532e-08
9.71516e-06
-4.49407e-08
9.715e-06
-4.98016e-08
9.71668e-06
-6.05828e-08
-7.30734e-08
9.71847e-06
8.64009e-06
1.76418e-07
8.60579e-06
9.50315e-08
8.54847e-06
-5.73069e-08
8.49872e-06
-1.41587e-07
8.46751e-06
-1.55073e-07
8.45472e-06
-1.32588e-07
8.45683e-06
-1.01768e-07
8.4668e-06
-7.99042e-08
8.4757e-06
-6.94103e-08
8.47768e-06
-6.35007e-08
8.47364e-06
-5.7967e-08
8.47014e-06
-5.46858e-08
8.47471e-06
-5.6184e-08
8.49164e-06
-6.28829e-08
8.5197e-06
-7.29978e-08
8.55388e-06
-8.39785e-08
8.58691e-06
-9.3614e-08
-9.93897e-08
8.61323e-06
7.52732e-06
4.04606e-08
7.55324e-06
6.91125e-08
7.49184e-06
4.08617e-09
7.42964e-06
-7.93799e-08
7.41196e-06
-1.37402e-07
7.43072e-06
-1.51341e-07
7.45199e-06
-1.23045e-07
7.44851e-06
-7.64176e-08
7.41592e-06
-3.68178e-08
7.36918e-06
-1.67605e-08
7.32857e-06
-1.73657e-08
7.30726e-06
-3.33728e-08
7.3073e-06
-5.62212e-08
7.32203e-06
-7.76194e-08
7.34082e-06
-9.17789e-08
7.35408e-06
-9.72426e-08
7.35557e-06
-9.51035e-08
-8.77566e-08
7.34394e-06
6.34648e-06
5.81659e-08
6.40529e-06
1.02976e-08
6.45649e-06
-4.71152e-08
6.46763e-06
-9.05156e-08
6.45616e-06
-1.25933e-07
6.43802e-06
-1.33203e-07
6.41787e-06
-1.02898e-07
6.39467e-06
-5.32159e-08
6.3705e-06
-1.26406e-08
6.35202e-06
1.71385e-09
6.345e-06
-1.03481e-08
6.3501e-06
-3.84717e-08
6.36348e-06
-6.9601e-08
6.37963e-06
-9.37703e-08
6.39336e-06
-1.0551e-07
6.40122e-06
-1.05102e-07
6.40147e-06
-9.53514e-08
-8.10518e-08
6.39477e-06
5.5847e-06
-4.6204e-08
5.65097e-06
-5.5978e-08
5.6922e-06
-8.8336e-08
5.7076e-06
-1.05917e-07
5.69296e-06
-1.11301e-07
5.66419e-06
-1.04433e-07
5.64711e-06
-8.5817e-08
5.65458e-06
-6.0683e-08
5.68227e-06
-4.0331e-08
5.71674e-06
-3.27524e-08
5.74336e-06
-3.69749e-08
5.75194e-06
-4.70436e-08
5.73981e-06
-5.74786e-08
5.71177e-06
-6.57268e-08
5.67691e-06
-7.06488e-08
5.64413e-06
-7.23189e-08
5.61995e-06
-7.11729e-08
-6.76811e-08
5.60658e-06
4.84631e-06
-3.91072e-08
4.89027e-06
-9.99372e-08
4.93618e-06
-1.34247e-07
4.94466e-06
-1.14401e-07
4.91423e-06
-8.08645e-08
4.87001e-06
-6.02171e-08
4.83727e-06
-5.30734e-08
4.82934e-06
-5.27521e-08
4.84555e-06
-5.65429e-08
4.87539e-06
-6.25955e-08
4.90549e-06
-6.70771e-08
4.92532e-06
-6.68719e-08
4.93002e-06
-6.21793e-08
4.92029e-06
-5.59925e-08
4.90075e-06
-5.1108e-08
4.87711e-06
-4.86773e-08
4.85432e-06
-4.83848e-08
-4.94138e-08
4.83605e-06
4.25715e-06
4.15721e-06
4.02297e-06
3.90856e-06
3.8277e-06
3.76748e-06
3.71441e-06
3.66166e-06
3.60511e-06
3.54252e-06
3.47544e-06
3.40857e-06
3.34639e-06
3.2904e-06
3.23929e-06
3.19061e-06
3.14223e-06
3.09281e-06
-2.93136e-07
2.93136e-07
-5.57286e-07
2.6415e-07
-8.04805e-07
2.47519e-07
-1.0215e-06
2.16696e-07
-1.18379e-06
1.62288e-07
-1.26632e-06
8.25296e-08
-1.26842e-06
2.10671e-09
-1.23203e-06
-3.63942e-08
-1.21375e-06
-1.8282e-08
-1.22954e-06
1.57961e-08
-1.28207e-06
5.25212e-08
-1.3605e-06
7.84365e-08
-1.45485e-06
9.43464e-08
-1.56518e-06
1.10328e-07
-1.69019e-06
1.25013e-07
-1.82239e-06
1.32205e-07
-1.95963e-06
1.37237e-07
-2.10737e-06
1.47743e-07
-2.27293e-06
1.65551e-07
-2.46087e-06
1.87944e-07
-2.67005e-06
2.09178e-07
-2.89286e-06
2.22813e-07
-3.1173e-06
2.24441e-07
-3.33012e-06
2.12821e-07
-3.51891e-06
1.88785e-07
-3.67321e-06
1.54305e-07
-3.7851e-06
1.11883e-07
-3.84911e-06
6.40122e-08
-3.86236e-06
1.32504e-08
-3.82402e-06
-3.83372e-08
-3.7337e-06
-9.03182e-08
-3.59121e-06
-1.42498e-07
-3.39768e-06
-1.93522e-07
-3.15558e-06
-2.42107e-07
-2.86706e-06
-2.88516e-07
-2.53313e-06
-3.33929e-07
-2.15473e-06
-3.78401e-07
-1.73478e-06
-4.19953e-07
-1.27895e-06
-4.5583e-07
-7.93579e-07
-4.8537e-07
-2.81465e-07
-5.12114e-07
2.57914e-07
-5.39379e-07
8.21744e-07
-5.63831e-07
1.3938e-06
-5.7206e-07
1.9565e-06
-5.62699e-07
2.51824e-06
-5.61735e-07
3.07834e-06
-5.60103e-07
3.55548e-06
-4.77139e-07
3.89608e-06
-3.40601e-07
4.21016e-06
-3.14078e-07
4.42572e-06
-2.15562e-07
4.19474e-06
2.30978e-07
3.56134e-06
6.33399e-07
2.88686e-06
6.74482e-07
2.41275e-06
4.74112e-07
2.23733e-06
1.75423e-07
2.06582e-06
1.71509e-07
1.66051e-06
4.05311e-07
1.15172e-06
5.08788e-07
7.19837e-07
4.31883e-07
4.36007e-07
2.8383e-07
3.44315e-07
9.16923e-08
5.67201e-07
-2.22886e-07
1.24304e-06
-6.75842e-07
2.34424e-06
-1.10119e-06
3.55265e-06
-1.20841e-06
4.50263e-06
-9.49976e-07
5.07474e-06
-5.72117e-07
4.97171e-06
1.03036e-07
3.96786e-06
1.00385e-06
2.73077e-06
1.23709e-06
1.64278e-06
1.08799e-06
1.23586e-06
4.06918e-07
1.71237e-06
-4.76509e-07
2.06427e-06
-3.51899e-07
1.43615e-06
6.28122e-07
-1.37664e-07
1.57381e-06
-1.82482e-06
1.68715e-06
-3.25485e-06
1.43003e-06
-4.39752e-06
1.14268e-06
-5.28635e-06
8.88826e-07
-5.97416e-06
6.87809e-07
-6.51185e-06
5.37694e-07
-6.94156e-06
4.29703e-07
-7.29508e-06
3.5352e-07
-7.59656e-06
3.01481e-07
-7.86415e-06
2.67595e-07
-8.11208e-06
2.47925e-07
-8.35218e-06
2.401e-07
-8.5945e-06
2.42325e-07
-8.84756e-06
2.5306e-07
-9.11826e-06
2.70701e-07
-9.41137e-06
2.93105e-07
-9.72866e-06
3.17289e-07
-1.00679e-05
3.39239e-07
-1.04214e-05
3.5346e-07
-1.07742e-05
3.52828e-07
-1.11028e-05
3.28657e-07
-1.13746e-05
2.71762e-07
-1.15502e-05
1.7555e-07
-1.15922e-05
4.20427e-08
-1.14794e-05
-1.12839e-07
-1.12085e-05
-2.70888e-07
-1.07897e-05
-4.18817e-07
-1.02473e-05
-5.42361e-07
-9.61509e-06
-6.32203e-07
-8.92807e-06
-6.87016e-07
-8.21709e-06
-7.10979e-07
-7.50547e-06
-7.11621e-07
-6.80861e-06
-6.96862e-07
-6.13513e-06
-6.73479e-07
-5.48857e-06
-6.46565e-07
-4.86905e-06
-6.19514e-07
-4.27476e-06
-5.9429e-07
-3.703e-06
-5.7176e-07
-3.1509e-06
-5.52107e-07
-2.61575e-06
-5.35148e-07
-2.09553e-06
-5.20218e-07
-1.58894e-06
-5.06588e-07
-1.09418e-06
-4.94767e-07
-6.08248e-07
-4.85928e-07
-1.28055e-07
-4.80194e-07
3.51262e-07
-4.79317e-07
8.33532e-07
-4.8227e-07
1.30485e-06
-4.71321e-07
1.72156e-06
-4.16705e-07
2.05596e-06
-3.34398e-07
2.34691e-06
-2.9095e-07
2.60982e-06
-2.6291e-07
2.75035e-06
-1.40533e-07
2.7992e-06
-4.88479e-08
3.00727e-06
-2.08071e-07
3.31065e-06
-3.03378e-07
3.2112e-06
9.94496e-08
2.63224e-06
5.78959e-07
2.00094e-06
6.31292e-07
1.56444e-06
4.36508e-07
1.37239e-06
1.92046e-07
1.58125e-06
-2.08865e-07
2.21496e-06
-6.33705e-07
2.82217e-06
-6.07212e-07
3.01826e-06
-1.96094e-07
2.80575e-06
2.12512e-07
2.26301e-06
5.42748e-07
1.44624e-06
8.16768e-07
4.69057e-07
9.7718e-07
-5.45716e-07
1.01477e-06
-1.51305e-06
9.67338e-07
-2.38653e-06
8.73481e-07
-3.13967e-06
7.53139e-07
-3.75294e-06
6.13265e-07
-4.21066e-06
4.5772e-07
-4.50068e-06
2.90023e-07
-4.61555e-06
1.14866e-07
-4.55786e-06
-5.76822e-08
-4.33845e-06
-2.19413e-07
-3.97323e-06
-3.65218e-07
-3.48634e-06
-4.86898e-07
-2.90868e-06
-5.77652e-07
-2.27456e-06
-6.34119e-07
-1.61732e-06
-6.57249e-07
-9.65964e-07
-6.51352e-07
-3.4295e-07
-6.23014e-07
2.36356e-07
-5.79305e-07
7.63132e-07
-5.26777e-07
1.23353e-06
-4.70397e-07
1.6467e-06
-4.13171e-07
2.00508e-06
-3.58376e-07
2.31185e-06
-3.06777e-07
2.573e-06
-2.61149e-07
2.79446e-06
-2.2146e-07
2.98476e-06
-1.90298e-07
3.14412e-06
-1.59364e-07
3.28262e-06
-1.38493e-07
3.39964e-06
-1.17021e-07
3.48306e-06
-8.34213e-08
3.47194e-06
1.1124e-08
3.39405e-06
7.78889e-08
3.36519e-06
2.88578e-08
1.21466e-08
3.35304e-06
-1.99047e-07
4.92184e-07
-4.03204e-07
4.68306e-07
-5.67034e-07
4.11349e-07
-6.75708e-07
3.25369e-07
-6.97043e-07
1.83622e-07
-5.97533e-07
-1.69799e-08
-4.57998e-07
-1.37428e-07
-3.48522e-07
-1.4587e-07
-3.36741e-07
-3.00634e-08
-3.79895e-07
5.89503e-08
-4.59599e-07
1.32225e-07
-5.59063e-07
1.77901e-07
-6.75609e-07
2.10892e-07
-8.35735e-07
2.70454e-07
-1.07744e-06
3.66719e-07
-1.4162e-06
4.70963e-07
-1.83722e-06
5.58258e-07
-2.31147e-06
6.2199e-07
-2.80091e-06
6.5499e-07
-3.2714e-06
6.58438e-07
-3.70034e-06
6.38121e-07
-4.07635e-06
5.98824e-07
-4.3959e-06
5.43991e-07
-4.65924e-06
4.76162e-07
-4.86805e-06
3.97594e-07
-5.02394e-06
3.10188e-07
-5.12777e-06
2.15718e-07
-5.17991e-06
1.1615e-07
-5.18037e-06
1.37082e-08
-5.12859e-06
-9.01122e-08
-5.02451e-06
-1.94405e-07
-4.86905e-06
-2.97952e-07
-4.66322e-06
-3.99355e-07
-4.40788e-06
-4.97441e-07
-4.10504e-06
-5.91362e-07
-3.75904e-06
-6.79927e-07
-3.3753e-06
-7.62145e-07
-2.95674e-06
-8.38512e-07
-2.50262e-06
-9.09946e-07
-2.01254e-06
-9.75446e-07
-1.49217e-06
-1.03249e-06
-9.52386e-07
-1.07917e-06
-3.98428e-07
-1.11779e-06
1.8046e-07
-1.15095e-06
7.9173e-07
-1.17397e-06
1.39846e-06
-1.16846e-06
1.9531e-06
-1.11474e-06
2.50187e-06
-1.02591e-06
3.09069e-06
-9.29419e-07
3.5924e-06
-8.15789e-07
3.96544e-06
-5.88601e-07
4.41916e-06
-2.22742e-07
4.91697e-06
1.35583e-07
5.04564e-06
5.4582e-07
4.57719e-06
9.42559e-07
3.79883e-06
9.53782e-07
3.22754e-06
7.42797e-07
2.93798e-06
6.94876e-07
2.64019e-06
8.06575e-07
2.22943e-06
8.42645e-07
1.7913e-06
7.21954e-07
1.45702e-06
4.25972e-07
1.36626e-06
-1.32119e-07
1.65755e-06
-9.67135e-07
2.37849e-06
-1.82213e-06
3.35709e-06
-2.18701e-06
4.22578e-06
-1.81867e-06
4.68833e-06
-1.03466e-06
4.84412e-06
-5.27562e-08
4.88154e-06
9.66428e-07
4.26224e-06
1.85639e-06
3.34794e-06
2.00229e-06
3.11422e-06
6.40641e-07
2.30457e-06
3.33134e-07
3.00272e-07
1.6524e-06
-1.7846e-06
2.713e-06
-3.20644e-06
2.99565e-06
-4.2419e-06
2.72262e-06
-5.09082e-06
2.27894e-06
-5.78025e-06
1.83211e-06
-6.34305e-06
1.45162e-06
-6.80806e-06
1.15282e-06
-7.1991e-06
9.2873e-07
-7.5352e-06
7.65803e-07
-7.83262e-06
6.50939e-07
-8.10421e-06
5.7307e-07
-8.3607e-06
5.24089e-07
-8.61046e-06
4.97684e-07
-8.85987e-06
4.89513e-07
-9.11353e-06
4.95987e-07
-9.37462e-06
5.14151e-07
-9.64492e-06
5.40998e-07
-9.92479e-06
5.72978e-07
-1.02129e-05
6.054e-07
-1.05056e-05
6.31916e-07
-1.0796e-05
6.43905e-07
-1.10731e-05
6.2993e-07
-1.13201e-05
5.7565e-07
-1.15139e-05
4.65563e-07
-1.16266e-05
2.88189e-07
-1.16281e-05
4.35622e-08
-1.14877e-05
-2.53209e-07
-1.1187e-05
-5.71613e-07
-1.07336e-05
-8.72179e-07
-1.01557e-05
-1.12024e-06
-9.49191e-06
-1.29604e-06
-8.78174e-06
-1.39718e-06
-8.05789e-06
-1.43484e-06
-7.34331e-06
-1.42619e-06
-6.65167e-06
-1.3885e-06
-5.98932e-06
-1.33583e-06
-5.3576e-06
-1.27828e-06
-4.7548e-06
-1.22232e-06
-4.17763e-06
-1.17146e-06
-3.62223e-06
-1.12716e-06
-3.08474e-06
-1.08959e-06
-2.56187e-06
-1.05803e-06
-2.0511e-06
-1.03099e-06
-1.5508e-06
-1.00689e-06
-1.05949e-06
-9.86071e-07
-5.73586e-07
-9.71835e-07
-8.80808e-08
-9.65699e-07
3.92814e-07
-9.60212e-07
8.52149e-07
-9.41605e-07
1.2901e-06
-9.09271e-07
1.75244e-06
-8.79047e-07
2.25743e-06
-8.39388e-07
2.69367e-06
-7.27191e-07
2.95504e-06
-5.24283e-07
3.13563e-06
-3.21119e-07
3.32807e-06
-2.41289e-07
3.44305e-06
-3.23052e-07
3.5049e-06
-3.65228e-07
3.72518e-06
-1.20831e-07
4.0632e-06
2.40942e-07
4.15836e-06
5.36132e-07
3.76663e-06
8.28242e-07
3.1315e-06
8.27171e-07
2.78311e-06
1.3953e-07
2.97616e-06
-8.26754e-07
3.35875e-06
-9.89803e-07
3.35791e-06
-1.95257e-07
2.75516e-06
8.15264e-07
1.7485e-06
1.5494e-06
6.4364e-07
1.92163e-06
-3.86556e-07
2.00738e-06
-1.30389e-06
1.9321e-06
-2.11702e-06
1.78047e-06
-2.83056e-06
1.58702e-06
-3.43754e-06
1.36012e-06
-3.92689e-06
1.10261e-06
-4.28722e-06
8.18059e-07
-4.50814e-06
5.10939e-07
-4.58131e-06
1.88032e-07
-4.498e-06
-1.4099e-07
-4.25661e-06
-4.60797e-07
-3.87023e-06
-7.51604e-07
-3.36236e-06
-9.94768e-07
-2.76393e-06
-1.17608e-06
-2.10932e-06
-1.28873e-06
-1.43228e-06
-1.33429e-06
-7.62255e-07
-1.32138e-06
-1.22159e-07
-1.26311e-06
4.72477e-07
-1.17394e-06
1.01297e-06
-1.06727e-06
1.49635e-06
-9.53769e-07
1.92316e-06
-8.39989e-07
2.2979e-06
-7.33112e-07
2.62429e-06
-6.33162e-07
2.90997e-06
-5.46837e-07
3.15905e-06
-4.70538e-07
3.3815e-06
-4.12742e-07
3.59046e-06
-3.68329e-07
3.78269e-06
-3.30727e-07
3.94905e-06
-2.83374e-07
4.08822e-06
-2.2259e-07
4.26632e-06
-1.66985e-07
4.39374e-06
-4.95219e-08
4.3403e-06
8.22956e-08
1.51816e-07
4.20063e-06
-3.55487e-08
5.27732e-07
-1.1615e-07
5.48908e-07
-1.72419e-07
4.67619e-07
-2.05169e-07
3.58119e-07
-1.55327e-07
1.33781e-07
-1.23211e-08
-1.59986e-07
9.73238e-08
-2.47073e-07
1.77394e-07
-2.2594e-07
1.22542e-07
2.47881e-08
-2.89368e-08
2.1043e-07
-2.94415e-07
3.97703e-07
-6.9585e-07
5.79336e-07
-1.188e-06
7.03039e-07
-1.72988e-06
8.12338e-07
-2.29077e-06
9.27606e-07
-2.84861e-06
1.02881e-06
-3.38489e-06
1.09453e-06
-3.88572e-06
1.12282e-06
-4.34452e-06
1.11379e-06
-4.75813e-06
1.07205e-06
-5.12459e-06
1.00458e-06
-5.4425e-06
9.16733e-07
-5.71133e-06
8.12829e-07
-5.93093e-06
6.95759e-07
-6.101e-06
5.67665e-07
-6.22092e-06
4.30108e-07
-6.28981e-06
2.84602e-07
-6.30674e-06
1.33084e-07
-6.27087e-06
-2.21572e-08
-6.18229e-06
-1.78697e-07
-6.04257e-06
-3.34124e-07
-5.85427e-06
-4.86254e-07
-5.6203e-06
-6.33327e-07
-5.34383e-06
-7.73903e-07
-5.02865e-06
-9.06546e-07
-4.67848e-06
-1.0301e-06
-4.29634e-06
-1.14428e-06
-3.88554e-06
-1.24931e-06
-3.45022e-06
-1.34526e-06
-2.99318e-06
-1.43249e-06
-2.51383e-06
-1.51183e-06
-2.00946e-06
-1.58354e-06
-1.48025e-06
-1.64699e-06
-9.30259e-07
-1.70094e-06
-3.6271e-07
-1.74152e-06
2.25833e-07
-1.75701e-06
8.42354e-07
-1.73126e-06
1.47307e-06
-1.65663e-06
2.08494e-06
-1.54129e-06
2.65551e-06
-1.38636e-06
3.20571e-06
-1.1388e-06
3.75683e-06
-7.73859e-07
4.26945e-06
-3.77037e-07
4.79227e-06
2.30007e-08
5.24882e-06
4.86008e-07
5.23717e-06
9.65435e-07
4.74816e-06
1.2318e-06
4.23789e-06
1.20515e-06
3.9547e-06
1.08977e-06
3.76501e-06
1.03234e-06
3.50597e-06
9.80988e-07
3.17259e-06
7.59356e-07
2.85512e-06
1.85347e-07
2.72829e-06
-8.40299e-07
2.94574e-06
-2.03958e-06
3.45737e-06
-2.69865e-06
3.99903e-06
-2.36033e-06
4.33163e-06
-1.36726e-06
4.54292e-06
-2.64048e-07
4.41022e-06
1.09913e-06
3.58312e-06
2.68348e-06
3.06277e-06
2.52265e-06
2.20487e-06
1.49854e-06
1.62558e-07
2.37545e-06
-1.91991e-06
3.73487e-06
-3.3124e-06
4.10548e-06
-4.12963e-06
3.81288e-06
-4.69587e-06
3.28886e-06
-5.16557e-06
2.74864e-06
-5.58812e-06
2.25466e-06
-5.97615e-06
1.83965e-06
-6.33034e-06
1.50701e-06
-6.65337e-06
1.25176e-06
-6.9491e-06
1.06154e-06
-7.22334e-06
9.25174e-07
-7.48182e-06
8.31553e-07
-7.73026e-06
7.72535e-07
-7.9738e-06
7.41221e-07
-8.21675e-06
7.32457e-07
-8.46295e-06
7.42194e-07
-8.71584e-06
7.67036e-07
-8.97833e-06
8.0349e-07
-9.25277e-06
8.47419e-07
-9.54063e-06
8.93258e-07
-9.84188e-06
9.33166e-07
-1.0154e-05
9.56001e-07
-1.04698e-05
9.45778e-07
-1.07745e-05
8.80328e-07
-1.10414e-05
7.32449e-07
-1.12303e-05
4.77076e-07
-1.12917e-05
1.05009e-07
-1.11825e-05
-3.62453e-07
-1.08825e-05
-8.71587e-07
-1.04013e-05
-1.35338e-06
-9.7767e-06
-1.74484e-06
-9.06093e-06
-2.01182e-06
-8.30433e-06
-2.15377e-06
-7.54614e-06
-2.19303e-06
-6.81175e-06
-2.16058e-06
-6.11453e-06
-2.08572e-06
-5.45933e-06
-1.99104e-06
-4.84556e-06
-1.89205e-06
-4.26951e-06
-1.79837e-06
-3.72599e-06
-1.71497e-06
-3.20933e-06
-1.64382e-06
-2.71398e-06
-1.58494e-06
-2.23521e-06
-1.53679e-06
-1.76928e-06
-1.49692e-06
-1.31328e-06
-1.46289e-06
-8.66567e-07
-1.43279e-06
-4.31116e-07
-1.40729e-06
-5.12045e-09
-1.39169e-06
4.21436e-07
-1.38677e-06
8.52803e-07
-1.37297e-06
1.26954e-06
-1.326e-06
1.66172e-06
-1.27123e-06
2.07979e-06
-1.25746e-06
2.55559e-06
-1.20299e-06
2.96718e-06
-9.35876e-07
3.19944e-06
-5.53371e-07
3.3791e-06
-4.20949e-07
3.62112e-06
-5.65079e-07
3.77311e-06
-5.17217e-07
3.82346e-06
-1.71176e-07
4.04051e-06
2.38897e-08
4.48117e-06
9.54692e-08
4.77499e-06
5.34423e-07
4.59105e-06
1.01111e-06
4.09891e-06
6.31677e-07
3.67518e-06
-4.03031e-07
3.39229e-06
-7.06912e-07
2.95101e-06
2.46026e-07
2.16699e-06
1.59928e-06
1.20816e-06
2.50824e-06
3.03915e-07
2.82588e-06
-4.99166e-07
2.81046e-06
-1.2486e-06
2.68154e-06
-1.96893e-06
2.5008e-06
-2.64468e-06
2.26277e-06
-3.24485e-06
1.9603e-06
-3.74181e-06
1.59957e-06
-4.11471e-06
1.19096e-06
-4.34681e-06
7.43036e-07
-4.42477e-06
2.65994e-07
-4.34175e-06
-2.24013e-07
-4.10009e-06
-7.02457e-07
-3.71194e-06
-1.13975e-06
-3.19987e-06
-1.50683e-06
-2.59468e-06
-1.78127e-06
-1.93125e-06
-1.95216e-06
-1.24401e-06
-2.02152e-06
-5.63273e-07
-2.00212e-06
8.6595e-08
-1.91298e-06
6.8783e-07
-1.77518e-06
1.22859e-06
-1.60803e-06
1.70289e-06
-1.42807e-06
2.11017e-06
-1.24727e-06
2.45565e-06
-1.07859e-06
2.74781e-06
-9.25327e-07
2.99655e-06
-7.95575e-07
3.2111e-06
-6.85082e-07
3.39538e-06
-5.97025e-07
3.56543e-06
-5.38382e-07
3.72947e-06
-4.94766e-07
3.91155e-06
-4.65454e-07
4.10808e-06
-4.19114e-07
4.31354e-06
-3.72454e-07
4.49334e-06
-2.29312e-07
4.55226e-06
2.3375e-08
2.64417e-07
4.43965e-06
8.72713e-08
4.40461e-07
9.58533e-08
5.40326e-07
7.80211e-08
4.85451e-07
1.0095e-07
3.3519e-07
2.29729e-07
5.00105e-09
3.62226e-07
-2.92483e-07
2.41604e-07
-1.26451e-07
-8.00933e-08
9.57568e-08
-5.04389e-07
4.49084e-07
-9.76846e-07
6.82886e-07
-1.45804e-06
8.78896e-07
-1.97647e-06
1.09777e-06
-2.54016e-06
1.26672e-06
-3.13478e-06
1.40696e-06
-3.71115e-06
1.50398e-06
-4.23639e-06
1.55404e-06
-4.70513e-06
1.56328e-06
-5.11891e-06
1.5366e-06
-5.48456e-06
1.47944e-06
-5.80915e-06
1.39664e-06
-6.09683e-06
1.29226e-06
-6.34873e-06
1.16864e-06
-6.5634e-06
1.02749e-06
-6.7377e-06
8.70064e-07
-6.86774e-06
6.97706e-07
-6.94978e-06
5.12147e-07
-6.98086e-06
3.1568e-07
-6.95913e-06
1.11351e-07
-6.88415e-06
-9.71289e-08
-6.75638e-06
-3.06476e-07
-6.57748e-06
-5.13024e-07
-6.35064e-06
-7.13088e-07
-6.08053e-06
-9.03442e-07
-5.77291e-06
-1.08152e-06
-5.43378e-06
-1.24567e-06
-5.06855e-06
-1.39533e-06
-4.68205e-06
-1.53079e-06
-4.27873e-06
-1.65263e-06
-3.86238e-06
-1.76162e-06
-3.43597e-06
-1.8589e-06
-3.00186e-06
-1.94594e-06
-2.56062e-06
-2.02478e-06
-2.10992e-06
-2.09769e-06
-1.64523e-06
-2.16563e-06
-1.16035e-06
-2.2264e-06
-6.4497e-07
-2.27239e-06
-8.41398e-08
-2.29209e-06
5.26955e-07
-2.26772e-06
1.16694e-06
-2.18128e-06
1.79604e-06
-2.01546e-06
2.39492e-06
-1.73768e-06
2.97729e-06
-1.35624e-06
3.55127e-06
-9.51011e-07
4.13425e-06
-5.5998e-07
4.74697e-06
-1.26713e-07
5.32984e-06
3.82562e-07
5.67091e-06
8.90731e-07
5.60035e-06
1.27571e-06
5.26091e-06
1.42921e-06
4.93284e-06
1.36041e-06
4.75377e-06
1.16006e-06
4.62499e-06
8.88134e-07
4.38782e-06
4.22521e-07
4.10235e-06
-5.54832e-07
3.97672e-06
-1.91396e-06
4.0414e-06
-2.76332e-06
4.15818e-06
-2.47712e-06
4.18157e-06
-1.39064e-06
3.87641e-06
4.11101e-08
3.05618e-06
1.91936e-06
2.4951e-06
3.24456e-06
2.20816e-06
2.80959e-06
6.37695e-07
3.069e-06
-1.48958e-06
4.50272e-06
-2.93012e-06
5.17541e-06
-3.71129e-06
4.88665e-06
-4.19283e-06
4.29442e-06
-4.55463e-06
3.65066e-06
-4.85976e-06
3.05378e-06
-5.14066e-06
2.53555e-06
-5.40912e-06
2.10811e-06
-5.6696e-06
1.76749e-06
-5.92357e-06
1.50572e-06
-6.17195e-06
1.30992e-06
-6.41519e-06
1.16842e-06
-6.65461e-06
1.07097e-06
-6.89191e-06
1.00983e-06
-7.12952e-06
9.78833e-07
-7.3701e-06
9.73044e-07
-7.61673e-06
9.88819e-07
-7.87279e-06
1.0231e-06
-8.14212e-06
1.07282e-06
-8.42912e-06
1.13442e-06
-8.73883e-06
1.20297e-06
-9.07659e-06
1.27093e-06
-9.44701e-06
1.32642e-06
-9.85098e-06
1.34974e-06
-1.02791e-05
1.30845e-06
-1.07012e-05
1.1546e-06
-1.10576e-05
8.33428e-07
-1.12636e-05
3.11054e-07
-1.12395e-05
-3.8664e-07
-1.09517e-05
-1.15934e-06
-1.04252e-05
-1.87993e-06
-9.72333e-06
-2.44666e-06
-8.92015e-06
-2.815e-06
-8.08066e-06
-2.99326e-06
-7.25052e-06
-3.02317e-06
-6.45583e-06
-2.95528e-06
-5.70798e-06
-2.83357e-06
-5.01002e-06
-2.689e-06
-4.36078e-06
-2.54129e-06
-3.75676e-06
-2.40239e-06
-3.1933e-06
-2.27843e-06
-2.66541e-06
-2.17171e-06
-2.16846e-06
-2.08189e-06
-1.69846e-06
-2.0068e-06
-1.25162e-06
-1.94376e-06
-8.24153e-07