/*--------------------------------*- C++ -*----------------------------------*\
  =========                 |
  \\      /  F ield         | OpenFOAM: The Open Source CFD Toolbox
   \\    /   O peration     | Website:  https://openfoam.org
    \\  /    A nd           | Version:  6
     \\/     M anipulation  |
\*---------------------------------------------------------------------------*/
FoamFile
{
    version     2.0;
    format      ascii;
    class       volScalarField;
    location    "0.3";
    object      pPrime2Mean;
}
// * * * * * * * * * * * * * * * * * * * * * * * * * * * * * * * * * * * * * //

dimensions      [0 4 -4 0 0 0 0];

internalField   nonuniform List<scalar> 
12225
(
1.64269e+06
1.61728e+06
1.59179e+06
1.56684e+06
1.5426e+06
1.51909e+06
1.49631e+06
1.47423e+06
1.4528e+06
1.43197e+06
1.41168e+06
1.39183e+06
1.37231e+06
1.353e+06
1.33367e+06
1.31402e+06
1.29347e+06
1.27059e+06
1.64274e+06
1.61732e+06
1.59182e+06
1.56687e+06
1.54263e+06
1.51912e+06
1.49634e+06
1.47426e+06
1.45283e+06
1.43201e+06
1.41173e+06
1.39189e+06
1.3724e+06
1.35311e+06
1.33384e+06
1.31429e+06
1.29399e+06
1.27191e+06
1.64283e+06
1.6174e+06
1.59188e+06
1.56693e+06
1.54268e+06
1.51918e+06
1.4964e+06
1.47432e+06
1.45291e+06
1.4321e+06
1.41183e+06
1.39203e+06
1.37258e+06
1.35336e+06
1.3342e+06
1.31487e+06
1.29503e+06
1.27428e+06
1.64298e+06
1.61753e+06
1.592e+06
1.56703e+06
1.54278e+06
1.51927e+06
1.49649e+06
1.47443e+06
1.45303e+06
1.43225e+06
1.41201e+06
1.39225e+06
1.37287e+06
1.35376e+06
1.33478e+06
1.31577e+06
1.29654e+06
1.27713e+06
1.64322e+06
1.61773e+06
1.59216e+06
1.56718e+06
1.54292e+06
1.51941e+06
1.49664e+06
1.47459e+06
1.45321e+06
1.43246e+06
1.41228e+06
1.39258e+06
1.3733e+06
1.35434e+06
1.3356e+06
1.31697e+06
1.29844e+06
1.28021e+06
1.6436e+06
1.618e+06
1.59239e+06
1.56738e+06
1.54311e+06
1.5196e+06
1.49684e+06
1.4748e+06
1.45346e+06
1.43276e+06
1.41263e+06
1.39303e+06
1.37388e+06
1.35511e+06
1.33665e+06
1.31847e+06
1.30062e+06
1.28341e+06
1.64403e+06
1.61836e+06
1.59269e+06
1.56765e+06
1.54336e+06
1.51985e+06
1.4971e+06
1.47509e+06
1.45379e+06
1.43314e+06
1.4131e+06
1.39361e+06
1.37462e+06
1.35607e+06
1.33793e+06
1.32022e+06
1.30304e+06
1.28667e+06
1.64461e+06
1.61882e+06
1.59308e+06
1.56799e+06
1.54368e+06
1.52017e+06
1.49743e+06
1.47546e+06
1.4542e+06
1.43363e+06
1.41368e+06
1.39433e+06
1.37552e+06
1.35723e+06
1.33944e+06
1.3222e+06
1.30563e+06
1.28996e+06
1.64533e+06
1.6194e+06
1.59357e+06
1.56842e+06
1.54409e+06
1.52057e+06
1.49785e+06
1.47591e+06
1.45471e+06
1.43422e+06
1.4144e+06
1.3952e+06
1.3766e+06
1.35858e+06
1.34116e+06
1.32438e+06
1.30835e+06
1.29326e+06
1.64623e+06
1.6201e+06
1.59416e+06
1.56895e+06
1.54458e+06
1.52106e+06
1.49836e+06
1.47646e+06
1.45534e+06
1.43495e+06
1.41525e+06
1.39623e+06
1.37786e+06
1.36012e+06
1.34306e+06
1.32671e+06
1.31118e+06
1.29658e+06
1.64724e+06
1.62094e+06
1.59488e+06
1.56959e+06
1.54518e+06
1.52165e+06
1.49897e+06
1.47713e+06
1.45608e+06
1.4358e+06
1.41625e+06
1.39742e+06
1.37928e+06
1.36185e+06
1.34513e+06
1.32919e+06
1.31409e+06
1.29991e+06
1.64826e+06
1.62186e+06
1.59567e+06
1.57029e+06
1.54584e+06
1.52229e+06
1.49964e+06
1.47784e+06
1.45688e+06
1.43671e+06
1.41731e+06
1.39866e+06
1.38075e+06
1.36358e+06
1.34717e+06
1.33157e+06
1.31682e+06
1.30296e+06
1.64954e+06
1.62291e+06
1.59656e+06
1.57109e+06
1.54658e+06
1.52302e+06
1.50039e+06
1.47865e+06
1.45777e+06
1.43772e+06
1.41847e+06
1.4e+06
1.38232e+06
1.36541e+06
1.34929e+06
1.334e+06
1.31956e+06
1.30599e+06
1.65127e+06
1.62432e+06
1.59775e+06
1.57213e+06
1.54755e+06
1.52397e+06
1.50137e+06
1.47969e+06
1.45892e+06
1.43901e+06
1.41994e+06
1.40169e+06
1.38425e+06
1.36763e+06
1.35182e+06
1.33685e+06
1.32272e+06
1.30943e+06
1.65366e+06
1.62618e+06
1.5993e+06
1.57349e+06
1.54881e+06
1.52521e+06
1.50263e+06
1.48104e+06
1.46038e+06
1.44064e+06
1.42177e+06
1.40377e+06
1.38661e+06
1.37028e+06
1.35479e+06
1.34014e+06
1.32631e+06
1.3133e+06
1.65676e+06
1.6286e+06
1.60129e+06
1.57523e+06
1.55043e+06
1.52678e+06
1.50424e+06
1.48274e+06
1.46222e+06
1.44267e+06
1.42403e+06
1.40628e+06
1.38941e+06
1.37339e+06
1.35822e+06
1.34387e+06
1.33033e+06
1.31759e+06
1.66063e+06
1.63158e+06
1.60374e+06
1.57738e+06
1.55242e+06
1.52873e+06
1.50623e+06
1.48483e+06
1.46448e+06
1.44512e+06
1.42672e+06
1.40925e+06
1.39266e+06
1.37695e+06
1.36207e+06
1.34802e+06
1.33475e+06
1.32224e+06
1.66498e+06
1.63495e+06
1.60652e+06
1.57984e+06
1.55474e+06
1.53102e+06
1.50858e+06
1.4873e+06
1.46712e+06
1.44798e+06
1.42983e+06
1.41262e+06
1.39631e+06
1.38088e+06
1.36628e+06
1.35249e+06
1.33947e+06
1.32717e+06
1.66937e+06
1.63812e+06
1.60918e+06
1.5823e+06
1.55715e+06
1.53348e+06
1.51114e+06
1.49003e+06
1.47004e+06
1.45112e+06
1.43321e+06
1.41626e+06
1.40021e+06
1.38504e+06
1.37069e+06
1.35712e+06
1.34431e+06
1.3322e+06
1.66866e+06
1.63865e+06
1.61026e+06
1.58367e+06
1.55873e+06
1.53524e+06
1.51307e+06
1.49213e+06
1.47232e+06
1.45359e+06
1.43586e+06
1.41909e+06
1.40323e+06
1.38823e+06
1.37405e+06
1.36063e+06
1.34796e+06
1.33597e+06
1.66764e+06
1.63841e+06
1.61053e+06
1.58429e+06
1.55959e+06
1.53629e+06
1.51428e+06
1.49348e+06
1.47381e+06
1.45521e+06
1.43761e+06
1.42096e+06
1.40521e+06
1.39032e+06
1.37623e+06
1.36291e+06
1.35032e+06
1.3384e+06
1.66633e+06
1.63785e+06
1.61046e+06
1.58455e+06
1.56009e+06
1.53697e+06
1.5151e+06
1.49443e+06
1.47487e+06
1.45636e+06
1.43885e+06
1.42229e+06
1.40663e+06
1.39181e+06
1.37779e+06
1.36454e+06
1.352e+06
1.34013e+06
1.66515e+06
1.63724e+06
1.61026e+06
1.58463e+06
1.56037e+06
1.5374e+06
1.51566e+06
1.49508e+06
1.4756e+06
1.45717e+06
1.43974e+06
1.42324e+06
1.40763e+06
1.39286e+06
1.3789e+06
1.36568e+06
1.35318e+06
1.34135e+06
1.66409e+06
1.63668e+06
1.61003e+06
1.58463e+06
1.56053e+06
1.53768e+06
1.51603e+06
1.49553e+06
1.47611e+06
1.45774e+06
1.44035e+06
1.4239e+06
1.40833e+06
1.3936e+06
1.37967e+06
1.36648e+06
1.35401e+06
1.3422e+06
1.66328e+06
1.63621e+06
1.60982e+06
1.5846e+06
1.56062e+06
1.53786e+06
1.51628e+06
1.49583e+06
1.47646e+06
1.45813e+06
1.44077e+06
1.42435e+06
1.40881e+06
1.39411e+06
1.3802e+06
1.36703e+06
1.35457e+06
1.34278e+06
1.66263e+06
1.63585e+06
1.60965e+06
1.58456e+06
1.56067e+06
1.53797e+06
1.51644e+06
1.49603e+06
1.47669e+06
1.45838e+06
1.44105e+06
1.42465e+06
1.40913e+06
1.39445e+06
1.38055e+06
1.3674e+06
1.35495e+06
1.34317e+06
1.66203e+06
1.63557e+06
1.60953e+06
1.58452e+06
1.5607e+06
1.53804e+06
1.51654e+06
1.49616e+06
1.47684e+06
1.45855e+06
1.44124e+06
1.42485e+06
1.40934e+06
1.39466e+06
1.38078e+06
1.36763e+06
1.35519e+06
1.34342e+06
1.66165e+06
1.63539e+06
1.60944e+06
1.5845e+06
1.56071e+06
1.53808e+06
1.5166e+06
1.49623e+06
1.47693e+06
1.45865e+06
1.44135e+06
1.42497e+06
1.40946e+06
1.3948e+06
1.38091e+06
1.36778e+06
1.35534e+06
1.34357e+06
1.66145e+06
1.63529e+06
1.6094e+06
1.58449e+06
1.56072e+06
1.53811e+06
1.51664e+06
1.49627e+06
1.47698e+06
1.4587e+06
1.4414e+06
1.42503e+06
1.40953e+06
1.39487e+06
1.38099e+06
1.36785e+06
1.35542e+06
1.34365e+06
1.66133e+06
1.63525e+06
1.60938e+06
1.58448e+06
1.56072e+06
1.53811e+06
1.51665e+06
1.49629e+06
1.477e+06
1.45873e+06
1.44143e+06
1.42505e+06
1.40956e+06
1.3949e+06
1.38102e+06
1.36788e+06
1.35545e+06
1.34368e+06
1.07414e+06
1.07406e+06
1.07388e+06
1.07362e+06
1.07327e+06
1.07283e+06
1.07229e+06
1.07166e+06
1.07093e+06
1.07011e+06
1.06919e+06
1.06816e+06
1.06704e+06
1.06582e+06
1.06449e+06
1.06307e+06
1.06154e+06
1.05991e+06
1.05817e+06
1.05633e+06
1.0544e+06
1.05236e+06
1.05021e+06
1.04797e+06
1.04563e+06
1.04319e+06
1.04065e+06
1.03802e+06
1.03529e+06
1.03246e+06
1.02955e+06
1.02654e+06
1.02344e+06
1.02025e+06
1.01697e+06
1.01361e+06
1.01016e+06
1.00663e+06
1.00301e+06
999316
995541
991686
987755
983746
979664
975507
971278
966976
962603
958159
953648
949069
944424
939717
934948
930119
925230
920283
915280
910224
905114
899951
894737
889471
884154
878788
873370
867902
862386
856821
851210
845553
839851
834102
828307
822469
816593
810681
804734
798753
792739
786692
780613
774500
768355
762178
755970
749732
743464
737164
730833
724469
718073
711645
705183
698688
692168
685625
679061
672476
665867
659235
652580
645903
639209
632503
625784
619051
612305
605551
598784
592001
585198
578372
571518
564640
557740
550819
543882
536932
529972
523005
516033
509058
502084
495113
488145
481182
474221
467259
460293
453318
446334
439337
432328
425325
418341
411379
404438
397510
390589
383666
376737
369800
362855
355905
348959
342024
335106
328211
321341
314499
307683
300894
294131
287399
280703
274046
267427
260838
254276
247740
241233
234759
228323
221927
215572
209262
203000
196793
190644
184555
178529
172566
166670
160844
155096
149436
143886
138497
1.07453e+06
1.07444e+06
1.07427e+06
1.07401e+06
1.07365e+06
1.07321e+06
1.07267e+06
1.07203e+06
1.0713e+06
1.07047e+06
1.06955e+06
1.06852e+06
1.06739e+06
1.06616e+06
1.06483e+06
1.0634e+06
1.06186e+06
1.06022e+06
1.05848e+06
1.05664e+06
1.05469e+06
1.05264e+06
1.05049e+06
1.04824e+06
1.04589e+06
1.04344e+06
1.0409e+06
1.03825e+06
1.03551e+06
1.03268e+06
1.02976e+06
1.02674e+06
1.02363e+06
1.02044e+06
1.01715e+06
1.01378e+06
1.01033e+06
1.00679e+06
1.00317e+06
999469
995689
991829
987893
983880
979792
975629
971395
967088
962711
958263
953746
949163
944515
939803
935030
930196
925304
920355
915350
910292
905180
900015
894798
889530
884210
878840
873419
867949
862431
856864
851250
845590
839883
834131
828334
822496
816621
810709
804763
798782
792767
786720
780640
774527
768381
762203
755995
749757
743487
737188
730856
724492
718095
711664
705201
698708
692190
685649
679086
672500
665890
659256
652599
645922
639229
632523
625803
619072
612330
605579
598814
592030
585227
578398
571543
564663
557760
550837
543898
536945
529984
523017
516044
509070
502097
495126
488160
481196
474235
467273
460306
453330
446345
439347
432342
425346
418367
411407
404466
397536
390612
383686
376755
369816
362869
355920
348974
342038
335119
328222
321351
314507
307690
300900
294137
287406
280710
274055
267435
260845
254282
247746
241239
234765
228328
221931
215576
209265
203002
196794
190645
184556
178529
172566
166669
160842
155091
149428
143871
138455
1.07531e+06
1.07522e+06
1.07504e+06
1.07478e+06
1.07442e+06
1.07397e+06
1.07343e+06
1.07278e+06
1.07205e+06
1.07121e+06
1.07027e+06
1.06923e+06
1.06809e+06
1.06685e+06
1.06551e+06
1.06406e+06
1.06251e+06
1.06086e+06
1.0591e+06
1.05724e+06
1.05528e+06
1.05321e+06
1.05105e+06
1.04878e+06
1.04641e+06
1.04395e+06
1.04138e+06
1.03872e+06
1.03597e+06
1.03312e+06
1.03018e+06
1.02715e+06
1.02402e+06
1.02081e+06
1.01752e+06
1.01414e+06
1.01067e+06
1.00712e+06
1.00349e+06
999775
995984
992114
988167
984143
980045
975873
971628
967312
962925
958467
953941
949349
944692
939972
935190
930349
925450
920496
915487
910423
905307
900137
894915
889641
884317
878942
873517
868043
862519
856948
851328
845660
839947
834191
828392
822555
816680
810768
804820
798839
792823
786775
780692
774577
768430
762251
756041
749801
743531
737231
730899
724534
718135
711703
705240
698750
692234
685694
679131
672543
665930
659294
652636
645959
639265
632558
625840
619113
612375
605627
598864
592081
585276
578444
571586
564702
557795
550868
543925
536970
530007
523038
516066
509092
502120
495150
488184
481221
474260
467297
460329
453352
446365
439369
432374
425386
418413
411456
404514
397581
390652
383723
376788
369846
362898
355949
349002
342065
335143
328243
321369
314523
307704
300913
294149
287418
280724
274069
267449
260858
254294
247757
241249
234775
228338
221939
215583
209270
203007
196797
190646
184557
178530
172566
166667
160837
155082
149413
143844
138394
1.07648e+06
1.07639e+06
1.07621e+06
1.07594e+06
1.07558e+06
1.07512e+06
1.07457e+06
1.07392e+06
1.07317e+06
1.07231e+06
1.07136e+06
1.07031e+06
1.06915e+06
1.06789e+06
1.06653e+06
1.06506e+06
1.06349e+06
1.06182e+06
1.06004e+06
1.05815e+06
1.05616e+06
1.05407e+06
1.05188e+06
1.04959e+06
1.04719e+06
1.0447e+06
1.04211e+06
1.03943e+06
1.03665e+06
1.03377e+06
1.03081e+06
1.02775e+06
1.02461e+06
1.02138e+06
1.01806e+06
1.01466e+06
1.01117e+06
1.00761e+06
1.00396e+06
1.00023e+06
996423
992537
988575
984536
980423
976236
971977
967645
963243
958771
954231
949624
944954
940222
935428
930577
925668
920705
915687
910615
905490
900312
895083
889803
884472
879090
873659
868178
862647
857067
851438
845763
840044
834284
828484
822645
816768
810855
804906
798923
792905
786853
780768
774650
768499
762318
756106
749865
743594
737292
730959
724593
718192
711761
705300
698811
692297
685758
679193
672602
665986
659347
652687
646009
639314
632608
625893
619170
612437
605691
598929
592147
585339
578505
571643
564754
557842
550910
543962
537004
530038
523068
516095
509122
502150
495181
488216
481254
474294
467332
460363
453385
446399
439409
432422
425442
418474
411519
404576
397639
390706
383772
376834
369889
362940
355990
349043
342103
335178
328274
321395
314545
307724
300931
294167
287436
280743
274088
267466
260874
254309
247771
241263
234788
228350
221951
215593
209279
203013
196802
190649
184559
178530
172564
166663
160830
155070
149393
143808
138325
1.07806e+06
1.07797e+06
1.07778e+06
1.07751e+06
1.07713e+06
1.07667e+06
1.0761e+06
1.07543e+06
1.07467e+06
1.0738e+06
1.07283e+06
1.07175e+06
1.07057e+06
1.06928e+06
1.06789e+06
1.0664e+06
1.0648e+06
1.06309e+06
1.06128e+06
1.05936e+06
1.05734e+06
1.05522e+06
1.05299e+06
1.05066e+06
1.04824e+06
1.04571e+06
1.04309e+06
1.04037e+06
1.03755e+06
1.03465e+06
1.03165e+06
1.02857e+06
1.02539e+06
1.02213e+06
1.01879e+06
1.01536e+06
1.01185e+06
1.00825e+06
1.00458e+06
1.00083e+06
997004
993098
989115
985056
980923
976717
972438
968087
963665
959173
954613
949989
945301
940552
935744
930878
925956
920979
915949
910864
905728
900539
895300
890010
884670
879280
873840
868350
862808
857218
851581
845899
840175
834411
828607
822764
816885
810969
805018
799031
793009
786953
780864
774742
768587
762402
756188
749944
743672
737370
731035
724667
718267
711836
705377
698890
692376
685835
679268
672674
666054
659413
652750
646070
639376
632673
625962
619243
612514
605771
599009
592226
585417
578578
571711
564817
557899
550961
544009
537046
530077
523105
516131
509158
502186
495218
488255
481295
474336
467375
460407
453430
446447
439464
432483
425509
418546
411593
404648
397709
390772
383833
376890
369943
362992
356041
349093
342152
335222
328313
321429
314575
307750
300955
294190
287460
280767
274111
267488
260894
254327
247788
241280
234804
228365
221964
215605
209289
203021
196807
190653
184561
178531
172563
166659
160821
155056
149370
143769
138254
1.08005e+06
1.07995e+06
1.07976e+06
1.07948e+06
1.07909e+06
1.07861e+06
1.07803e+06
1.07734e+06
1.07655e+06
1.07566e+06
1.07466e+06
1.07356e+06
1.07235e+06
1.07103e+06
1.0696e+06
1.06807e+06
1.06643e+06
1.06468e+06
1.06283e+06
1.06087e+06
1.05881e+06
1.05664e+06
1.05437e+06
1.052e+06
1.04953e+06
1.04697e+06
1.0443e+06
1.04154e+06
1.03869e+06
1.03574e+06
1.0327e+06
1.02958e+06
1.02637e+06
1.02307e+06
1.01969e+06
1.01623e+06
1.01269e+06
1.00906e+06
1.00536e+06
1.00158e+06
997727
993794
989786
985702
981544
977312
973009
968634
964187
959672
955088
950441
945732
940962
936135
931250
926310
921316
916269
911169
906017
900815
895563
890261
884909
879507
874056
868554
863003
857403
851758
846070
840340
834569
828760
822912
817028
811108
805151
799160
793133
787072
780978
774850
768692
762503
756285
750040
743766
737462
731125
724756
718357
711928
705470
698983
692468
685925
679354
672757
666135
659490
652825
646144
639452
632752
626046
619330
612604
605862
599102
592317
585505
578663
571790
564889
557965
551021
544063
537096
530124
523149
516174
509200
502229
495262
488300
481342
474386
467427
460460
453486
446509
439532
432556
425587
418627
411675
404729
397787
390845
383901
376954
370004
363052
356100
349151
342207
335274
328360
321471
314611
307782
300984
294219
287489
280795
274138
267512
260916
254348
247808
241298
234822
228381
221979
215619
209301
203031
196815
190658
184564
178532
172562
166655
160813
155041
149345
143727
138185
1.08246e+06
1.08236e+06
1.08217e+06
1.08187e+06
1.08147e+06
1.08097e+06
1.08036e+06
1.07965e+06
1.07884e+06
1.07791e+06
1.07688e+06
1.07574e+06
1.07449e+06
1.07313e+06
1.07166e+06
1.07008e+06
1.0684e+06
1.0666e+06
1.0647e+06
1.06269e+06
1.06058e+06
1.05836e+06
1.05604e+06
1.05361e+06
1.05109e+06
1.04847e+06
1.04576e+06
1.04295e+06
1.04004e+06
1.03705e+06
1.03397e+06
1.03079e+06
1.02754e+06
1.0242e+06
1.02077e+06
1.01727e+06
1.01369e+06
1.01003e+06
1.00629e+06
1.00248e+06
998588
994624
990584
986470
982282
978021
973689
969284
964809
960265
955654
950979
946244
941449
936597
931689
926726
921711
916643
911524
906356
901137
895870
890553
885187
879771
874307
868794
863233
857624
851971
846275
840537
834758
828941
823086
817195
811268
805305
799306
793274
787207
781107
774974
768810
762617
756396
750148
743872
737567
731229
724860
718461
712033
705575
699087
692569
686023
679450
672850
666226
659579
652913
646232
639541
632844
626140
619428
612704
605964
599203
592417
585602
578755
571877
564970
558039
551089
544125
537153
530177
523199
516222
509247
502277
495311
488351
481395
474442
467485
460522
453552
446581
439608
432637
425672
418714
411761
404814
397869
390923
383974
377023
370070
363117
356165
349214
342268
335332
328412
321517
314652
307819
301019
294252
287521
280827
274167
267539
260941
254370
247829
241319
234842
228400
221996
215634
209315
203043
196825
190666
184570
178535
172562
166651
160804
155025
149319
143684
138119
1.08532e+06
1.08521e+06
1.08501e+06
1.08469e+06
1.08428e+06
1.08375e+06
1.08312e+06
1.08238e+06
1.08152e+06
1.08056e+06
1.07949e+06
1.0783e+06
1.077e+06
1.07559e+06
1.07407e+06
1.07244e+06
1.07069e+06
1.06884e+06
1.06688e+06
1.06481e+06
1.06263e+06
1.06036e+06
1.05797e+06
1.05549e+06
1.05291e+06
1.05023e+06
1.04745e+06
1.04458e+06
1.04162e+06
1.03857e+06
1.03543e+06
1.03221e+06
1.0289e+06
1.02551e+06
1.02203e+06
1.01848e+06
1.01485e+06
1.01115e+06
1.00737e+06
1.00352e+06
999588
995586
991510
987360
983138
978843
974477
970038
965530
960952
956309
951602
946836
942011
937129
932193
927203
922162
917071
911931
906741
901504
896218
890885
885503
880073
874596
869071
863499
857881
852219
846513
840764
834976
829148
823284
817383
811447
805475
799469
793428
787355
781248
775109
768940
762743
756518
750267
743990
737682
731343
724974
718575
712147
705688
699197
692677
686128
679552
672951
666326
659679
653012
646331
639641
632945
626242
619531
612809
606070
599309
592522
585704
578853
571970
565058
558121
551164
544193
537216
530235
523254
516275
509300
502329
495365
488406
481454
474503
467550
460590
453626
446659
439690
432722
425759
418802
411849
404900
397951
391001
384049
377094
370139
363184
356231
349279
342331
335391
328467
321567
314697
307860
301057
294289
287557
280861
274198
267568
260967
254394
247851
241340
234863
228419
222014
215650
209330
203057
196836
190676
184577
178539
172562
166647
160795
155009
149292
143642
138056
1.08864e+06
1.08852e+06
1.0883e+06
1.08797e+06
1.08753e+06
1.08697e+06
1.08631e+06
1.08553e+06
1.08463e+06
1.08362e+06
1.08249e+06
1.08125e+06
1.07989e+06
1.07842e+06
1.07684e+06
1.07514e+06
1.07333e+06
1.07141e+06
1.06938e+06
1.06724e+06
1.06499e+06
1.06264e+06
1.06019e+06
1.05764e+06
1.05498e+06
1.05223e+06
1.04939e+06
1.04645e+06
1.04343e+06
1.04031e+06
1.03711e+06
1.03382e+06
1.03045e+06
1.02699e+06
1.02347e+06
1.01986e+06
1.01618e+06
1.01242e+06
1.0086e+06
1.0047e+06
1.00073e+06
996680
992563
988373
984111
979777
975372
970895
966349
961734
957053
952310
947508
942647
937732
932763
927742
922672
917553
912386
907173
901913
896607
891255
885856
880412
874921
869384
863801
858171
852497
846779
841019
835218
829380
823504
817592
811645
805663
799646
793596
787514
781400
775255
769080
762877
756648
750394
744114
737804
731465
725095
718696
712266
705805
699312
692788
686236
679659
673058
666434
659787
653120
646438
639748
633051
626348
619638
612916
606178
599417
592628
585808
578954
572068
565151
558207
551244
544268
537284
530299
523314
516333
509357
502387
495423
488467
481516
474568
467618
460662
453702
446739
439773
432807
425846
418888
411934
404982
398031
391077
384121
377163
370207
363252
356298
349344
342394
335451
328522
321618
314743
307902
301097
294327
287594
280896
274231
267597
260994
254419
247875
241363
234885
228440
222033
215668
209346
203072
196850
190687
184585
178544
172564
166644
160785
154991
149264
143601
137996
1.09244e+06
1.09232e+06
1.09208e+06
1.09172e+06
1.09125e+06
1.09066e+06
1.08995e+06
1.08912e+06
1.08817e+06
1.0871e+06
1.08591e+06
1.08461e+06
1.08318e+06
1.08164e+06
1.07998e+06
1.0782e+06
1.07632e+06
1.07431e+06
1.0722e+06
1.06998e+06
1.06766e+06
1.06522e+06
1.06269e+06
1.06005e+06
1.05732e+06
1.05449e+06
1.05156e+06
1.04855e+06
1.04545e+06
1.04225e+06
1.03898e+06
1.03562e+06
1.03218e+06
1.02866e+06
1.02507e+06
1.0214e+06
1.01766e+06
1.01385e+06
1.00997e+06
1.00602e+06
1.002e+06
997901
993736
989500
985193
980815
976367
971848
967259
962603
957882
953098
948255
943356
938402
933396
928340
923235
918084
912888
907647
902362
897034
891662
886246
880785
875280
869728
864131
858489
852801
847069
841297
835485
829634
823747
817823
811863
805868
799839
793777
787684
781561
775408
769227
763018
756785
750526
744243
737931
731590
725220
718820
712387
705923
699427
692900
686346
679768
673168
666544
659898
653231
646549
639858
633160
626456
619745
613023
606284
599522
592733
585911
579055
572165
565244
558296
551327
544345
537357
530367
523380
516397
509420
502449
495486
488530
481581
474635
467686
460734
453778
446818
439854
432889
425927
418968
412011
405057
398103
391147
384188
377229
370272
363316
356362
349407
342454
335508
328576
321667
314789
307945
301137
294366
287631
280931
274263
267627
261020
254444
247898
241386
234907
228462
222053
215686
209364
203088
196865
190700
184595
178550
172565
166641
160776
154973
149236
143559
137938
1.09676e+06
1.09662e+06
1.09636e+06
1.09598e+06
1.09547e+06
1.09483e+06
1.09407e+06
1.09319e+06
1.09217e+06
1.09104e+06
1.08977e+06
1.08839e+06
1.08688e+06
1.08525e+06
1.08351e+06
1.08164e+06
1.07966e+06
1.07757e+06
1.07536e+06
1.07305e+06
1.07063e+06
1.0681e+06
1.06547e+06
1.06274e+06
1.05991e+06
1.05699e+06
1.05398e+06
1.05088e+06
1.04768e+06
1.04441e+06
1.04105e+06
1.03761e+06
1.0341e+06
1.03051e+06
1.02684e+06
1.02311e+06
1.0193e+06
1.01543e+06
1.01148e+06
1.00747e+06
1.00339e+06
999235
995016
990728
986370
981944
977447
972882
968249
963548
958783
953956
949070
944129
939133
934087
928991
923849
918663
913434
908162
902850
897497
892104
886669
881190
875667
870099
864486
858827
853125
847380
841595
835771
829909
824010
818073
812100
806091
800047
793972
787866
781732
775570
769380
763165
756925
750662
744374
738060
731716
725344
718942
712507
706039
699540
693011
686455
679877
673276
666654
660009
653343
646661
639969
633268
626562
619848
613125
606385
599622
592831
586007
579149
572257
565333
558381
551409
544423
537432
530440
523451
516466
509487
502515
495552
488595
481646
474700
467753
460804
453851
446893
439929
432964
426000
419038
412079
405122
398166
391207
384248
377288
370331
363375
356420
349464
342508
335560
328625
321713
314832
307985
301175
294402
287666
280964
274294
267655
261047
254468
247921
241408
234928
228482
222073
215705
209382
203105
196880
190713
184605
178556
172567
166637
160765
154954
149206
143517
137882
1.10163e+06
1.10148e+06
1.10119e+06
1.10077e+06
1.10022e+06
1.09953e+06
1.09871e+06
1.09776e+06
1.09667e+06
1.09545e+06
1.0941e+06
1.09262e+06
1.09101e+06
1.08929e+06
1.08744e+06
1.08547e+06
1.08338e+06
1.08118e+06
1.07886e+06
1.07644e+06
1.07391e+06
1.07127e+06
1.06854e+06
1.0657e+06
1.06277e+06
1.05975e+06
1.05663e+06
1.05343e+06
1.05014e+06
1.04677e+06
1.04332e+06
1.0398e+06
1.03619e+06
1.03252e+06
1.02877e+06
1.02496e+06
1.02108e+06
1.01713e+06
1.01311e+06
1.00903e+06
1.00488e+06
1.00067e+06
996389
992043
987629
983148
978600
973984
969302
964554
959743
954870
949940
944954
939916
934826
929690
924508
919284
914020
908716
903375
897996
892579
887121
881621
876078
870490
864859
859184
853465
847707
841910
836075
830202
824290
818341
812353
806329
800270
794180
788060
781913
775739
769541
763317
757070
750801
744508
738189
731842
725467
719062
712623
706152
699650
693118
686560
679980
673380
666759
660116
653452
646770
640076
633373
626663
619946
613219
606477
599712
592919
586094
579234
572340
565414
558460
551486
544499
537507
530515
523524
516538
509557
502583
495618
488659
481708
474761
467816
460868
453917
446959
439994
433027
426060
419095
412134
405175
398216
391257
384297
377338
370381
363426
356471
349513
342555
335605
328668
321755
314871
308022
301210
294436
287698
280995
274323
267682
261072
254491
247943
241429
234949
228502
222092
215724
209399
203122
196895
190726
184614
178561
172568
166632
160753
154934
149176
143475
137827
1.1071e+06
1.10693e+06
1.10662e+06
1.10616e+06
1.10555e+06
1.1048e+06
1.1039e+06
1.10287e+06
1.10169e+06
1.10037e+06
1.09891e+06
1.09732e+06
1.09561e+06
1.09376e+06
1.09179e+06
1.08969e+06
1.08748e+06
1.08515e+06
1.08271e+06
1.08017e+06
1.07751e+06
1.07475e+06
1.07189e+06
1.06894e+06
1.06589e+06
1.06275e+06
1.05952e+06
1.0562e+06
1.0528e+06
1.04933e+06
1.04577e+06
1.04215e+06
1.03845e+06
1.03468e+06
1.03084e+06
1.02694e+06
1.02297e+06
1.01894e+06
1.01485e+06
1.01069e+06
1.00647e+06
1.00219e+06
997839
993428
988953
984413
979808
975138
970404
965606
960746
955827
950851
945820
940737
935605
930426
925204
919941
914641
909303
903931
898524
893080
887598
882074
876508
870899
865248
859554
853820
848048
842239
836393
830509
824587
818624
812622
806582
800507
794400
788265
782104
775918
769708
763475
757220
750943
744644
738320
731968
725588
719178
712736
706261
699755
693220
686660
680078
673477
666857
660216
653553
646873
640177
633471
626757
620036
613305
606559
599791
592996
586168
579306
572410
565483
558528
551554
544569
537579
530589
523599
516612
509628
502652
495682
488720
481765
474816
467870
460923
453973
447014
440046
433076
426106
419138
412173
405212
398252
391293
384334
377377
370422
363467
356511
349552
342593
335641
328704
321790
314905
308054
301241
294465
287726
281022
274349
267706
261094
254513
247963
241448
234967
228521
222110
215741
209416
203138
196910
190737
184622
178565
172567
166625
160739
154911
149144
143433
137774
1.11324e+06
1.11305e+06
1.1127e+06
1.11218e+06
1.11151e+06
1.11069e+06
1.1097e+06
1.10856e+06
1.10727e+06
1.10583e+06
1.10425e+06
1.10253e+06
1.10067e+06
1.09869e+06
1.09657e+06
1.09433e+06
1.09197e+06
1.0895e+06
1.08691e+06
1.08422e+06
1.08142e+06
1.07852e+06
1.07552e+06
1.07243e+06
1.06924e+06
1.06597e+06
1.06261e+06
1.05917e+06
1.05565e+06
1.05205e+06
1.04838e+06
1.04464e+06
1.04083e+06
1.03696e+06
1.03302e+06
1.02902e+06
1.02496e+06
1.02084e+06
1.01666e+06
1.01242e+06
1.00812e+06
1.00376e+06
999345
994865
990323
985719
981054
976327
971538
966688
961779
956812
951790
946714
941587
936411
931190
925928
920627
915290
909918
904514
899076
893604
888094
882544
876953
871321
865648
859936
854186
848400
842579
836722
830828
824894
818918
812902
806846
800754
794630
788479
782303
776104
769883
763639
757374
751089
744781
738451
732093
725708
719293
712845
706366
699856
693317
686752
680168
673565
666945
660305
653645
646965
640269
633559
626841
620116
613380
606630
599858
593058
586227
579363
572465
565537
558583
551611
544629
537645
530659
523672
516684
509698
502716
495742
488775
481815
474863
467914
460967
454015
447054
440084
433110
426136
419165
412197
405234
398274
391315
384358
377403
370450
363497
356540
349580
342620
335668
328731
321818
314933
308081
301266
294489
287750
281045
274371
267728
261115
254532
247982
241466
234984
228537
222126
215757
209431
203152
196923
190748
184629
178568
172564
166616
160723
154888
149111
143390
137721
1.12012e+06
1.1199e+06
1.1195e+06
1.11893e+06
1.11818e+06
1.11725e+06
1.11615e+06
1.11488e+06
1.11346e+06
1.11187e+06
1.11013e+06
1.10825e+06
1.10623e+06
1.10407e+06
1.10178e+06
1.09937e+06
1.09684e+06
1.09419e+06
1.09143e+06
1.08857e+06
1.0856e+06
1.08254e+06
1.07938e+06
1.07613e+06
1.0728e+06
1.06938e+06
1.06588e+06
1.0623e+06
1.05864e+06
1.05492e+06
1.05112e+06
1.04726e+06
1.04333e+06
1.03935e+06
1.0353e+06
1.0312e+06
1.02703e+06
1.02282e+06
1.01854e+06
1.01422e+06
1.00983e+06
1.00539e+06
1.00089e+06
996337
991724
987053
982323
977536
972691
967788
962829
957814
952746
947625
942454
937236
931974
926672
921334
915960
910554
905116
899646
894143
888604
883027
877410
871753
866058
860326
854559
848758
842923
837055
831150
825205
819217
813186
807115
801006
794865
788699
782508
776296
770062
763808
757533
751238
744922
738582
732217
725825
719404
712950
706465
699949
693406
686837
680248
673643
667022
660382
653723
647045
640348
633635
626914
620184
613443
606688
599911
593106
586270
579402
572503
565574
558622
551654
544679
537702
530722
523738
516749
509760
502775
495795
488822
481856
474898
467947
460996
454042
447078
440105
433127
426150
419176
412206
405241
398280
391323
384369
377417
370466
363513
356556
349595
342636
335685
328751
321839
314955
308103
301288
294510
287769
281064
274390
267747
261133
254549
247998
241481
234999
228552
222141
215771
209445
203165
196934
190757
184635
178569
172559
166605
160706
154863
149077
143347
137668
1.12809e+06
1.12783e+06
1.12737e+06
1.12671e+06
1.12584e+06
1.12478e+06
1.12353e+06
1.1221e+06
1.12049e+06
1.11871e+06
1.11678e+06
1.11469e+06
1.11246e+06
1.11009e+06
1.10759e+06
1.10496e+06
1.10221e+06
1.09936e+06
1.09639e+06
1.09333e+06
1.09017e+06
1.08692e+06
1.08358e+06
1.08016e+06
1.07665e+06
1.07307e+06
1.0694e+06
1.06567e+06
1.06186e+06
1.05799e+06
1.05406e+06
1.05006e+06
1.046e+06
1.04189e+06
1.03773e+06
1.03351e+06
1.02923e+06
1.02491e+06
1.02053e+06
1.01611e+06
1.01163e+06
1.0071e+06
1.00252e+06
997877
993186
988441
983643
978791
973887
968928
963917
958853
953737
948570
943355
938094
932792
927451
922074
916663
911221
905748
900244
894708
889137
883530
877885
872202
866483
860729
854942
849124
843275
837394
831477
825521
819521
813476
807389
801264
795107
788925
782720
776495
770250
763985
757700
751395
745067
738716
732342
725941
719512
713051
706558
700037
693488
686914
680320
673711
667088
660447
653789
647111
640414
633699
626973
620239
613493
606732
599949
593138