/*--------------------------------*- C++ -*----------------------------------*\
  =========                 |
  \\      /  F ield         | OpenFOAM: The Open Source CFD Toolbox
   \\    /   O peration     | Website:  https://openfoam.org
    \\  /    A nd           | Version:  6
     \\/     M anipulation  |
\*---------------------------------------------------------------------------*/
FoamFile
{
    version     2.0;
    format      ascii;
    class       volVectorField;
    location    "0.3";
    object      U_0;
}
// * * * * * * * * * * * * * * * * * * * * * * * * * * * * * * * * * * * * * //

dimensions      [0 1 -1 0 0 0 0];

internalField   nonuniform List<vector> 
12225
(
(10.1389 0.0144511 0)
(9.61498 0.063829 0)
(9.2564 0.0536103 0)
(8.98532 0.0482515 0)
(8.72081 0.0508967 0)
(8.41981 0.0547472 0)
(8.08587 0.0579693 0)
(7.76321 0.0566416 0)
(7.4777 0.0512959 0)
(7.25219 0.0454867 0)
(7.0497 0.0456327 0)
(6.8882 0.0475082 0)
(6.68578 0.0558384 0)
(6.54616 0.0523842 0)
(6.27879 0.0638236 0)
(6.2232 0.0355565 0)
(5.8532 0.0831382 0)
(5.88749 0.0196696 0)
(9.97961 0.150624 0)
(10.0482 0.114735 0)
(10.1381 0.0553859 0)
(10.2101 0.038417 0)
(10.237 0.0491605 0)
(10.2158 0.0741056 0)
(10.16 0.0921774 0)
(10.0893 0.0923755 0)
(10.0152 0.0786767 0)
(9.95184 0.064896 0)
(9.90081 0.0549303 0)
(9.8714 0.0546178 0)
(9.83998 0.0538381 0)
(9.81905 0.066016 0)
(9.76427 0.0690148 0)
(9.71779 0.0770634 0)
(9.63268 0.104955 0)
(9.56135 0.104493 0)
(9.77932 0.130965 0)
(9.88367 0.0709847 0)
(9.97307 0.0593487 0)
(10.0175 0.0734195 0)
(10.0531 0.089389 0)
(10.1218 0.113202 0)
(10.2082 0.133173 0)
(10.2664 0.136469 0)
(10.2715 0.123408 0)
(10.2385 0.104868 0)
(10.2008 0.0890231 0)
(10.1823 0.0827064 0)
(10.1842 0.0834942 0)
(10.1964 0.0942934 0)
(10.2082 0.104048 0)
(10.2094 0.11843 0)
(10.2052 0.135029 0)
(10.2054 0.141854 0)
(9.86452 0.0635532 0)
(10.0568 0.0901847 0)
(10.0887 0.050341 0)
(10.0773 0.0330172 0)
(10.0839 0.01256 0)
(10.1239 0.00464985 0)
(10.1831 0.0200823 0)
(10.2345 0.0473727 0)
(10.2585 0.0684709 0)
(10.2554 0.0740008 0)
(10.2376 0.0660508 0)
(10.2175 0.055543 0)
(10.1993 0.050239 0)
(10.1863 0.0570319 0)
(10.1803 0.0722844 0)
(10.1795 0.0900423 0)
(10.1881 0.110203 0)
(10.2111 0.125333 0)
(9.92906 0.0526353 0)
(10.0943 0.0213094 0)
(10.1848 0.0116384 0)
(10.1752 0.038544 0)
(10.1028 0.0608815 0)
(10.0343 0.0813668 0)
(10.0194 0.0984757 0)
(10.0601 0.106728 0)
(10.1212 0.105593 0)
(10.1645 0.0994246 0)
(10.1725 0.0926576 0)
(10.1533 0.0885183 0)
(10.1257 0.0869444 0)
(10.1112 0.0892837 0)
(10.1205 0.0938631 0)
(10.1536 0.0982634 0)
(10.2041 0.106642 0)
(10.2621 0.110424 0)
(10.0629 -0.025978 0)
(10.0049 0.00985695 0)
(9.88761 0.0484836 0)
(9.89839 0.0572793 0)
(10.0058 0.0464047 0)
(10.1311 0.0356818 0)
(10.2134 0.0374281 0)
(10.2347 0.0517332 0)
(10.2061 0.071112 0)
(10.1504 0.0876534 0)
(10.0903 0.0957539 0)
(10.0411 0.0947513 0)
(10.0087 0.0870795 0)
(9.99553 0.078816 0)
(10.0002 0.0738769 0)
(10.0208 0.0729914 0)
(10.0487 0.0763689 0)
(10.0825 0.0789125 0)
(10.0523 0.0517499 0)
(10.0186 0.0893871 0)
(10.0584 0.0829246 0)
(10.1007 0.0482068 0)
(10.1291 0.0140599 0)
(10.1304 0.00387396 0)
(10.1161 0.0240534 0)
(10.1071 0.060034 0)
(10.1101 0.092707 0)
(10.1181 0.111828 0)
(10.1212 0.115932 0)
(10.1131 0.108467 0)
(10.0952 0.0939187 0)
(10.0737 0.0781915 0)
(10.057 0.0649693 0)
(10.0485 0.0564901 0)
(10.0494 0.0528259 0)
(10.0565 0.0544982 0)
(9.99991 -0.0233892 0)
(10.1552 0.00363265 0)
(10.1888 -0.0060335 0)
(10.1109 -0.00824555 0)
(10.0249 0.0146458 0)
(9.96555 0.0464116 0)
(9.93422 0.0717937 0)
(9.92451 0.0860471 0)
(9.92836 0.0918489 0)
(9.93905 0.0956004 0)
(9.95306 0.100708 0)
(9.96949 0.105491 0)
(9.99064 0.106118 0)
(10.0175 0.101713 0)
(10.051 0.0935273 0)
(10.0853 0.0836507 0)
(10.1202 0.074407 0)
(10.145 0.0680746 0)
(9.77203 0.0115131 0)
(9.9323 0.0184518 0)
(9.90547 0.0963724 0)
(9.85249 0.0945549 0)
(9.8416 0.0545955 0)
(9.86691 0.0305772 0)
(9.91128 0.037125 0)
(9.9558 0.0649218 0)
(9.98828 0.0959765 0)
(10.0099 0.116818 0)
(10.0293 0.121376 0)
(10.0549 0.108641 0)
(10.091 0.0826924 0)
(10.1357 0.0520446 0)
(10.1846 0.0263498 0)
(10.2279 0.0122634 0)
(10.2636 0.0120391 0)
(10.2834 0.0246447 0)
(10.0773 0.0466827 0)
(9.93721 0.0151712 0)
(9.96969 0.0402689 0)
(10.0101 0.070711 0)
(10.0098 0.060658 0)
(9.96028 0.033392 0)
(9.90048 0.0178788 0)
(9.87473 0.0206792 0)
(9.90082 0.0315201 0)
(9.97109 0.0408866 0)
(10.0615 0.0453916 0)
(10.1486 0.044612 0)
(10.2149 0.0400703 0)
(10.2583 0.0345099 0)
(10.2812 0.0312691 0)
(10.2943 0.0315865 0)
(10.3022 0.0357325 0)
(10.3139 0.0423027 0)
(10.0085 0.0818758 0)
(10.1348 0.0575838 0)
(10.099 0.02903 0)
(10.0761 0.0233909 0)
(10.0847 0.0485709 0)
(10.1012 0.0796049 0)
(10.1218 0.0935298 0)
(10.1475 0.0883451 0)
(10.1756 0.0731056 0)
(10.2015 0.0581151 0)
(10.2201 0.0474756 0)
(10.2282 0.0393274 0)
(10.2287 0.0300042 0)
(10.2275 0.0180709 0)
(10.2307 0.00716677 0)
(10.2375 3.71939e-05 0)
(10.2487 0.0013292 0)
(10.257 0.0109386 0)
(9.90589 -0.0307256 0)
(9.91288 0.0241702 0)
(9.95905 0.0682191 0)
(9.96828 0.0746988 0)
(9.9697 0.0450996 0)
(9.9798 0.0133003 0)
(9.99448 -0.000785734 0)
(10.0058 -0.000709201 0)
(10.0113 0.00472913 0)
(10.0159 0.0124894 0)
(10.0264 0.0217637 0)
(10.0458 0.0294805 0)
(10.0767 0.031914 0)
(10.1179 0.027504 0)
(10.1666 0.0197491 0)
(10.2173 0.0137131 0)
(10.2649 0.0140079 0)
(10.3084 0.0252554 0)
(9.99384 0.160064 0)
(9.76041 0.0477752 0)
(9.85034 -0.0040439 0)
(9.92883 0.0478458 0)
(9.93268 0.0880323 0)
(9.9149 0.0811186 0)
(9.9223 0.0551348 0)
(9.95997 0.038486 0)
(10.0143 0.0363141 0)
(10.0748 0.0379849 0)
(10.1361 0.0320671 0)
(10.1936 0.0144944 0)
(10.2415 -0.0112221 0)
(10.2754 -0.0374124 0)
(10.2889 -0.0567543 0)
(10.2857 -0.0642894 0)
(10.2673 -0.0585758 0)
(10.2491 -0.0410734 0)
(9.90168 0.0772999 0)
(10.1485 0.0652713 0)
(10.1746 -0.00937967 0)
(10.0864 -0.0108576 0)
(10.0053 0.00613091 0)
(9.94803 0.0173137 0)
(9.90939 0.01251 0)
(9.9014 -0.00924569 0)
(9.9336 -0.0373723 0)
(9.99958 -0.0587552 0)
(10.0792 -0.0654161 0)
(10.151 -0.0557322 0)
(10.2018 -0.0340057 0)
(10.2286 -0.00711878 0)
(10.2352 0.018025 0)
(10.2292 0.0380424 0)
(10.2178 0.051737 0)
(10.2103 0.0610607 0)
(9.99627 0.0179541 0)
(10.1152 -0.125034 0)
(10.138 0.0254648 0)
(10.125 0.186233 0)
(10.104 0.20842 0)
(10.0956 0.13713 0)
(10.1047 0.0450595 0)
(10.1317 -0.0254482 0)
(10.1653 -0.0623813 0)
(10.1871 -0.0740846 0)
(10.1833 -0.0746113 0)
(10.1525 -0.0721019 0)
(10.1066 -0.0681999 0)
(10.0625 -0.0628482 0)
(10.034 -0.0569528 0)
(10.0267 -0.0497158 0)
(10.04 -0.0427624 0)
(10.0712 -0.0315424 0)
(9.92441 -0.0462524 0)
(9.77556 -0.0408012 0)
(9.8618 -0.00988895 0)
(9.98698 -0.0106979 0)
(10.0823 0.0118315 0)
(10.1257 0.0380251 0)
(10.1251 0.0172734 0)
(10.1143 -0.0420756 0)
(10.1104 -0.0894399 0)
(10.1082 -0.0889469 0)
(10.0977 -0.0440438 0)
(10.0768 0.0163272 0)
(10.0515 0.0619076 0)
(10.0313 0.0767603 0)
(10.0209 0.0608043 0)
(10.0246 0.0272885 0)
(10.0383 -0.0119821 0)
(10.0643 -0.0412575 0)
(10.0034 -0.17322 0)
(9.9843 -0.123509 0)
(9.94696 -0.0548191 0)
(9.89486 0.015033 0)
(9.9007 0.057976 0)
(9.97496 0.0589713 0)
(10.0567 0.0316619 0)
(10.0964 -0.000490607 0)
(10.0827 -0.0193312 0)
(10.0368 -0.0208025 0)
(9.98986 -0.0130669 0)
(9.96241 -0.00729424 0)
(9.95811 -0.0116097 0)
(9.96896 -0.0263524 0)
(9.984 -0.0484731 0)
(9.99498 -0.0712004 0)
(10.001 -0.0915131 0)
(10.0005 -0.10582 0)
(9.91609 -0.129795 0)
(9.90838 -0.126322 0)
(9.98922 -0.0446015 0)
(10.0502 -0.0158035 0)
(10.082 -0.050769 0)
(10.1056 -0.102215 0)
(10.1267 -0.12019 0)
(10.1482 -0.0907776 0)
(10.1675 -0.0343478 0)
(10.1804 0.0191123 0)
(10.1894 0.0514338 0)
(10.201 0.0603586 0)
(10.2178 0.0517315 0)
(10.2379 0.0336145 0)
(10.2568 0.0121191 0)
(10.2706 -0.00973937 0)
(10.2793 -0.0310718 0)
(10.2816 -0.054072 0)
(10.2084 -0.0944742 0)
(10.1115 -0.125929 0)
(10.0775 -0.0948291 0)
(10.0958 -0.0708204 0)
(10.1211 -0.0518752 0)
(10.0938 -0.0476661 0)
(10.0319 -0.0604202 0)
(9.98557 -0.0734335 0)
(9.9731 -0.0749374 0)
(9.98644 -0.0693685 0)
(10.0129 -0.068212 0)
(10.042 -0.077543 0)
(10.0659 -0.0940591 0)
(10.0826 -0.10961 0)
(10.0937 -0.117309 0)
(10.1021 -0.116672 0)
(10.1094 -0.110328 0)
(10.1167 -0.105461 0)
(9.98751 0.00533779 0)
(9.98793 -0.00226023 0)
(10.0718 -0.115597 0)
(10.0786 -0.0971814 0)
(10.0945 0.0127881 0)
(10.108 0.0867675 0)
(10.0988 0.0832142 0)
(10.0934 0.0322528 0)
(10.1134 -0.0214409 0)
(10.1531 -0.0523009 0)
(10.1939 -0.0586872 0)
(10.2186 -0.0515383 0)
(10.2204 -0.042521 0)
(10.2022 -0.0397794 0)
(10.1747 -0.0461028 0)
(10.148 -0.0600493 0)
(10.1298 -0.0785324 0)
(10.1225 -0.0962099 0)
(10.086 -0.0665467 0)
(10.0895 -0.0813428 0)
(10.035 -0.154328 0)
(9.9803 -0.148641 0)
(10.0065 -0.0769491 0)
(10.102 -0.0186006 0)
(10.202 -0.0234872 0)
(10.2516 -0.081624 0)
(10.2354 -0.145005 0)
(10.174 -0.171349 0)
(10.1042 -0.150326 0)
(10.0546 -0.0999243 0)
(10.034 -0.0473055 0)
(10.0372 -0.0138671 0)
(10.0533 -0.0088384 0)
(10.0741 -0.0282271 0)
(10.0932 -0.0636412 0)
(10.1085 -0.101289 0)
(10.0628 -0.0286739 0)
(10.1073 -0.0151473 0)
(10.0374 -0.0221299 0)
(9.95842 -0.0848001 0)
(9.96752 -0.152339 0)
(10.0365 -0.16841 0)
(10.1061 -0.120353 0)
(10.1561 -0.038803 0)
(10.1801 0.0310274 0)
(10.1756 0.0596391 0)
(10.155 0.0455976 0)
(10.1388 0.00697896 0)
(10.1378 -0.0354466 0)
(10.1492 -0.0689259 0)
(10.1629 -0.0900634 0)
(10.1679 -0.101926 0)
(10.1582 -0.108381 0)
(10.1309 -0.114871 0)
(9.95396 0.0550435 0)
(9.95133 -0.0236203 0)
(10.0072 -0.073488 0)
(10.0383 -0.0866875 0)
(10.019 -0.0957293 0)
(9.96934 -0.121222 0)
(9.91996 -0.141277 0)
(9.90449 -0.132507 0)
(9.93021 -0.0989433 0)
(9.97605 -0.0608057 0)
(10.0185 -0.0355344 0)
(10.044 -0.0292537 0)
(10.0491 -0.0375638 0)
(10.0369 -0.0508264 0)
(10.0175 -0.0601245 0)
(10.0018 -0.0620853 0)
(9.99696 -0.0576787 0)
(10.0072 -0.0521301 0)
(10.0663 0.0784519 0)
(9.99258 0.0685025 0)
(9.98978 -0.0286703 0)
(10.0297 -0.0840606 0)
(10.1034 -0.101336 0)
(10.1472 -0.0933216 0)
(10.1256 -0.0769404 0)
(10.07 -0.0699445 0)
(10.0242 -0.0758775 0)
(10.0047 -0.083576 0)
(10.0081 -0.0812927 0)
(10.0248 -0.0670226 0)
(10.0441 -0.0473238 0)
(10.0573 -0.0316167 0)
(10.0624 -0.0280319 0)
(10.062 -0.0383523 0)
(10.0617 -0.0616887 0)
(10.0635 -0.0918719 0)
(10.2542 0.0493252 0)
(10.2574 0.0035936 0)
(10.2116 -0.121934 0)
(10.1388 -0.171865 0)
(10.0849 -0.156195 0)
(10.0622 -0.120547 0)
(10.0574 -0.0814963 0)
(10.0653 -0.0484322 0)
(10.0796 -0.0287503 0)
(10.088 -0.0229048 0)
(10.085 -0.0266575 0)
(10.0774 -0.0360317 0)
(10.0762 -0.0476176 0)
(10.0886 -0.0594353 0)
(10.1163 -0.0712789 0)
(10.1547 -0.0838471 0)
(10.1972 -0.0979526 0)
(10.234 -0.113411 0)
(10.2461 0.0854142 0)
(10.323 0.0779259 0)
(10.2895 0.00909326 0)
(10.1896 -0.0703595 0)
(10.1243 -0.11119 0)
(10.1346 -0.112187 0)
(10.1758 -0.0970474 0)
(10.1931 -0.0873934 0)
(10.1658 -0.0865807 0)
(10.1049 -0.086135 0)
(10.0382 -0.0813198 0)
(9.99274 -0.0758887 0)
(9.97931 -0.075369 0)
(9.99317 -0.0821663 0)
(10.0198 -0.094452 0)
(10.0443 -0.108533 0)
(10.056 -0.120979 0)
(10.0485 -0.126954 0)
(9.9385 0.0228313 0)
(9.9724 0.0304321 0)
(10.1045 0.00964377 0)
(10.1644 -0.0294524 0)
(10.1523 -0.0750303 0)
(10.1217 -0.10033 0)
(10.092 -0.0860329 0)
(10.0579 -0.0412298 0)
(10.0188 0.00659046 0)
(9.98283 0.0334359 0)
(9.96129 0.0298822 0)
(9.96013 0.000746905 0)
(9.97674 -0.0407355 0)
(10.0023 -0.0801016 0)
(10.0276 -0.106578 0)
(10.0452 -0.117073 0)
(10.0521 -0.113108 0)
(10.046 -0.10072 0)
(9.99022 0.0170388 0)
(10.1229 -0.00852987 0)
(10.228 -0.0490373 0)
(10.3009 -0.0744129 0)
(10.2967 -0.0966322 0)
(10.2397 -0.10196 0)
(10.1878 -0.081102 0)
(10.178 -0.0447673 0)
(10.2146 -0.0158863 0)
(10.2777 -0.010631 0)
(10.3388 -0.0289827 0)
(10.3737 -0.059886 0)
(10.3705 -0.090357 0)
(10.3314 -0.11211 0)
(10.2702 -0.121628 0)
(10.2054 -0.120253 0)
(10.1513 -0.110835 0)
(10.1176 -0.0972389 0)
(9.98755 -0.0231131 0)
(10.0427 -0.0634757 0)
(10.1849 -0.109015 0)
(10.2702 -0.121685 0)
(10.2322 -0.108508 0)
(10.1337 -0.0871274 0)
(10.0424 -0.0720814 0)
(9.99718 -0.0652815 0)
(10.0093 -0.0624546 0)
(10.0639 -0.0598521 0)
(10.1324 -0.0558328 0)
(10.1883 -0.0512568 0)
(10.2153 -0.0486931 0)
(10.2094 -0.0505995 0)
(10.1759 -0.0571778 0)
(10.1284 -0.0665096 0)
(10.0772 -0.0762538 0)
(10.0346 -0.084038 0)
(10.1697 -0.013902 0)
(10.0342 -0.0339986 0)
(9.73189 -0.0466297 0)
(9.43054 -0.0133274 0)
(9.19428 0.0152908 0)
(9.02954 0.0150124 0)
(8.89959 0.000798346 0)
(8.77739 -0.0128943 0)
(8.65026 -0.0260147 0)
(8.50907 -0.0413599 0)
(8.35217 -0.0557103 0)
(8.1894 -0.0627591 0)
(8.03421 -0.0598413 0)
(7.89421 -0.0502451 0)
(7.76766 -0.0396288 0)
(7.65041 -0.0323321 0)
(7.53481 -0.0301597 0)
(7.41978 -0.0306763 0)
(-0.195278 0.0757838 -5.80066e-20)
(-0.416572 9.65137e-05 5.75347e-20)
(-0.620552 -0.00743064 0)
(-0.837237 -0.0270268 0)
(-1.01725 -0.0644457 0)
(-1.11852 -0.108823 -5.57881e-20)
(-1.1222 -0.133564 0)
(-1.08004 -0.127733 0)
(-1.0641 -0.10057 0)
(-1.06704 -0.0631226 0)
(-1.10449 -0.0143374 5.36567e-20)
(-1.17176 0.0264554 0)
(-1.25329 0.0468351 0)
(-1.34762 0.0452093 0)
(-1.4541 0.0270642 0)
(-1.56884 0.000674797 5.15726e-20)
(-1.68818 -0.0211991 0)
(-1.81495 -0.0247566 0)
(-1.95548 -0.00523445 0)
(-2.11508 0.0319897 0)
(-2.29528 0.0761071 0)
(-2.4921 0.115791 0)
(-2.6961 0.143831 0)
(-2.89526 0.157505 4.83255e-20)
(-3.07808 0.15664 -4.78948e-20)
(-3.23382 0.143038 4.74519e-20)
(-3.3542 0.119622 4.69947e-20)
(-3.43394 0.0893199 0)
(-3.46904 0.0551201 0)
(-3.45637 0.0183992 -4.55182e-20)
(-3.39802 -0.0213865 -4.49867e-20)
(-3.29436 -0.0624388 0)
(-3.14461 -0.100083 0)
(-2.94806 -0.133436 -4.33064e-20)
(-2.70864 -0.168192 0)
(-2.43139 -0.208874 0)
(-2.11473 -0.250473 4.15693e-20)
(-1.75439 -0.28242 0)
(-1.35688 -0.301689 4.04375e-20)
(-0.935412 -0.31732 7.97889e-20)
(-0.493627 -0.343256 0)
(-0.0232862 -0.385228 0)
(0.47977 -0.425339 0)
(1.00277 -0.418554 0)
(1.51498 -0.370389 0)
(2.00628 -0.391265 7.36891e-20)
(2.52324 -0.487645 7.28596e-20)
(3.05048 -0.411496 7.21067e-20)
(3.42134 -0.208968 0)
(3.66998 -0.334536 -7.07505e-20)
(4.01604 -0.408934 0)
(4.0718 0.265671 6.95162e-20)
(3.54332 0.785991 6.89392e-20)
(2.85472 0.375208 0)
(2.36092 -0.173607 0)
(2.13347 -0.239007 0)
(2.01742 0.0856338 6.70752e-20)
(1.73263 0.243573 0)
(1.28052 0.0675205 0)
(0.854083 -0.133968 0)
(0.533438 -0.262311 0)
(0.362287 -0.383069 0)
(0.410803 -0.553496 0)
(0.778289 -0.776784 0)
(1.53621 -0.951608 0)
(2.62032 -0.901346 -6.1395e-20)
(3.68527 -0.66635 0)
(4.52372 -0.547986 0)
(5.02718 -0.216571 5.92915e-20)
(4.41242 0.708567 5.84711e-20)
(2.93575 0.944504 0)
(1.74238 0.305335 -5.71337e-20)
(1.30709 -0.0341988 5.67232e-20)
(1.33378 -0.378097 0)
(1.89083 -0.745651 -5.5245e-20)
(2.31401 -0.334803 0)
(0.696153 0.747112 0)
(-1.26716 0.949412 5.45154e-20)
(-2.60708 0.758034 0)
(-3.71679 0.583937 -5.48593e-20)
(-4.59305 0.445119 0)
(-5.28693 0.340501 5.54861e-20)
(-5.8385 0.265112 5.57343e-20)
(-6.281 0.210974 5.59126e-20)
(-6.64563 0.172958 1.12042e-19)
(-6.95348 0.14699 -1.12131e-19)
(-7.2238 0.13018 0)
(-7.46997 0.120626 0)
(-7.70421 0.117464 0)
(-7.93641 0.119811 -1.11509e-19)
(-8.17548 0.126742 -1.11175e-19)
(-8.42877 0.137236 1.1079e-19)
(-8.70216 0.149877 0)
(-8.99914 0.162869 -1.09889e-19)
(-9.32007 0.173989 -1.09377e-19)
(-9.66096 0.180314 -1.08817e-19)
(-10.0116 0.17836 0)
(-10.3536 0.164438 0)
(-10.6589 0.135499 0)
(-10.8905 0.0904345 -1.0552e-19)
(-11.0075 0.0318136 0)
(-10.9738 -0.0341246 0)
(-10.7883 -0.101812 1.00383e-19)
(-10.4571 -0.165654 0)
(-9.99681 -0.218502 0)
(-9.43907 -0.256335 9.29949e-20)
(-8.81615 -0.278851 0)
(-8.15872 -0.288005 0)
(-7.49101 -0.287169 -8.56053e-20)
(-6.8301 -0.279792 -8.336e-20)
(-6.18654 -0.268772 0)
(-5.56557 -0.256258 7.92037e-20)
(-4.96869 -0.243634 0)
(-4.3951 -0.231621 -7.54199e-20)
(-3.84273 -0.220449 0)
(-3.30894 -0.21008 -7.19365e-20)
(-2.79104 -0.200361 -7.0295e-20)
(-2.28676 -0.1912 0)
(-1.79414 -0.182986 0)
(-1.31114 -0.176435 0)
(-0.835903 -0.172005 0)
(-0.367668 -0.171677 0)
(0.0965299 -0.179683 0)
(0.562852 -0.187437 0)
(1.03371 -0.164003 -5.93412e-20)
(1.48454 -0.0961064 5.82305e-20)
(1.85447 -0.055543 0)
(2.14588 -0.113011 0)
(2.43291 -0.15054 0)
(2.66616 -0.0416111 0)
(2.72274 -0.0101624 1.07171e-19)
(2.79982 -0.229358 0)
(3.16797 -0.299763 -1.038e-19)
(3.38581 0.0537123 1.0213e-19)
(2.90639 0.252746 0)
(2.21983 0.0174424 0)
(1.74055 -0.187068 0)
(1.44205 -0.203628 -9.69147e-20)
(1.42929 -0.216878 -9.55071e-20)
(1.84105 -0.212457 0)
(2.53513 -0.0712461 -9.17243e-20)
(3.00637 0.0729683 -9.01673e-20)
(2.97901 0.120182 8.88234e-20)
(2.56288 0.164899 0)
(1.8422 0.242499 0)
(0.906151 0.30268 8.65573e-20)
(-0.114611 0.321096 0)
(-1.11658 0.306525 0)
(-2.03943 0.275736 0)
(-2.8539 0.237404 0)
(-3.53682 0.194193 -8.84803e-20)
(-4.06954 0.147621 -8.87307e-20)
(-4.43766 0.0987701 0)
(-4.632 0.0488785 -8.80577e-20)
(-4.64855 0.000377207 0)
(-4.50288 -0.0446585 0)
(-4.20803 -0.0846421 -8.32419e-20)
(-3.78439 -0.11722 0)
(-3.25753 -0.140743 -7.80412e-20)
(-2.6561 -0.154597 0)
(-2.00955 -0.159373 0)
(-1.34652 -0.156485 -6.96441e-20)
(-0.692682 -0.147857 0)
(-0.0695296 -0.13533 -6.47031e-20)
(0.507436 -0.120484 0)
(1.02915 -0.104635 0)
(1.49248 -0.0887363 0)
(1.8977 -0.0737096 5.69468e-20)
(2.24865 -0.060036 0)
(2.54816 -0.0479598 -5.39018e-20)
(2.80595 -0.0381303 0)
(3.02296 -0.0299309 0)
(3.21871 -0.0213794 0)
(3.36732 -0.0204709 0)
(3.52816 -0.0180807 0)
(3.62126 -0.00619689 0)
(3.71955 0.0508668 0)
(3.59699 0.0476794 8.69097e-20)
(3.59196 -0.0511054 0)
(3.64662 -0.0995383 0)
(-0.146193 0.631965 1.74084e-19)
(-0.306749 0.620023 -1.728e-19)
(-0.478818 0.593005 0)
(-0.621564 0.506696 1.13501e-19)
(-0.664424 0.352807 0)
(-0.570954 0.134001 5.59261e-20)
(-0.408685 -0.0656681 -1.11135e-19)
(-0.301974 -0.122418 -1.10293e-19)
(-0.276387 -0.0136779 0)
(-0.304587 0.109971 -1.08534e-19)
(-0.372605 0.181361 -5.37902e-20)
(-0.461172 0.182258 0)
(-0.554279 0.162582 0)
(-0.669189 0.199872 0)
(-0.838554 0.29516 0)
(-1.08845 0.410771 -5.16441e-20)
(-1.42823 0.537196 0)
(-1.84069 0.656998 1.01602e-19)
(-2.28786 0.746845 0)
(-2.72953 0.798248 0)
(-3.13786 0.81217 -9.90488e-20)
(-3.49976 0.792473 0)
(-3.81118 0.743137 9.7416e-20)
(-4.07207 0.669275 -4.81562e-20)
(-4.28366 0.576387 4.77286e-20)
(-4.44739 0.469407 -4.7292e-20)
(-4.56449 0.352491 -4.68429e-20)
(-4.63527 0.229509 0)
(-4.65923 0.104426 0)
(-4.63737 -0.0196684 4.53837e-20)
(-4.56834 -0.141643 -4.51534e-20)
(-4.453 -0.261569 0)
(-4.29129 -0.37848 0)
(-4.08473 -0.490069 4.31673e-20)
(-3.83547 -0.593722 0)
(-3.54495 -0.688273 0)
(-3.21602 -0.775714 -4.14275e-20)
(-2.8549 -0.860306 0)
(-2.46594 -0.942825 4.05325e-20)
(-2.04555 -1.01552 -7.9504e-20)
(-1.59052 -1.06798 0)
(-1.10896 -1.09857 0)
(-0.615975 -1.12284 -1.53465e-19)
(-0.11153 -1.15703 -1.51614e-19)
(0.423946 -1.19109 -1.49711e-19)
(0.984341 -1.18032 7.40567e-20)
(1.5272 -1.09084 -7.29476e-20)
(2.01895 -0.966283 -2.16746e-19)
(2.53068 -0.855532 1.43083e-19)
(3.06764 -0.728399 7.07969e-20)
(3.47107 -0.452103 0)
(3.78318 0.00371584 -6.95186e-20)
(4.21472 0.498573 6.91113e-20)
(4.69551 1.1057 0)
(4.59371 1.368 0)
(3.8188 0.729913 0)
(3.09411 0.226265 -6.68675e-20)
(2.74926 0.458409 0)
(2.55478 0.721058 1.32149e-19)
(2.25151 0.572253 0)
(1.83679 0.203994 1.30925e-19)
(1.47738 -0.197302 0)
(1.29726 -0.723686 -1.29345e-19)
(1.37004 -1.44015 0)
(1.76295 -2.10909 1.25654e-19)
(2.52571 -2.27275 -6.21883e-20)
(3.48633 -1.83006 0)
(4.16358 -1.12606 -1.20475e-19)
(4.49584 -0.0199918 -5.93217e-20)
(4.72624 1.15117 -5.8387e-20)
(4.43716 1.54807 0)
(3.19341 1.9384 -5.72727e-20)
(3.07497 1.09376 -5.65316e-20)
(3.04813 -0.144261 0)
(1.29092 0.625072 5.5367e-20)
(-0.703418 1.91508 -1.10099e-19)
(-2.48401 2.37924 0)
(-3.62374 2.16929 -5.41777e-20)
(-4.47208 1.80157 0)
(-5.13304 1.43327 1.65034e-19)
(-5.69023 1.12453 0)
(-6.14377 0.883941 -1.66805e-19)
(-6.53667 0.70492 -5.56338e-20)
(-6.8712 0.575927 5.62791e-20)
(-7.16939 0.48522 1.12612e-19)
(-7.43863 0.423988 -1.12575e-19)
(-7.69114 0.385205 0)
(-7.93415 0.3639 0)
(-8.1749 0.356788 0)
(-8.41819 0.361189 3.34468e-19)
(-8.66775 0.374766 1.11058e-19)
(-8.92605 0.395076 -1.10672e-19)
(-9.19426 0.419082 0)
(-9.47223 0.442818 -1.10045e-19)
(-9.75802 0.461201 1.09265e-19)
(-10.0473 0.467669 1.08714e-19)
(-10.3322 0.454115 0)
(-10.5992 0.411162 0)
(-10.8276 0.329619 0)
(-10.9892 0.203919 1.05489e-19)
(-11.0533 0.0370287 0)
(-10.9951 -0.157129 -2.05711e-19)
(-10.7841 -0.358313 -3.01866e-19)
(-10.4192 -0.544467 1.96741e-19)
(-9.92512 -0.695715 0)
(-9.33444 -0.80143 9.34219e-20)
(-8.68566 -0.861264 0)
(-8.01155 -0.882206 1.76165e-19)
(-7.33676 -0.874774 -8.58553e-20)
(-6.67721 -0.849502 -8.35863e-20)
(-6.04145 -0.815046 0)
(-5.43262 -0.777633 -2.37712e-19)
(-4.85035 -0.741191 1.54675e-19)
(-4.2923 -0.707763 7.53789e-20)
(-3.75529 -0.678052 0)
(-3.23573 -0.652023 7.18988e-20)
(-2.73009 -0.629091 2.10924e-19)
(-2.23567 -0.608052 0)
(-1.75065 -0.588136 1.34458e-19)
(-1.27292 -0.570399 1.31549e-19)
(-0.800599 -0.556233 1.28773e-19)
(-0.330273 -0.543757 0)
(0.140901 -0.53084 0)
(0.603195 -0.520101 0)
(1.03677 -0.514139 -5.93784e-20)
(1.45987 -0.494436 -5.82038e-20)
(1.93791 -0.424715 0)
(2.45278 -0.313002 -1.12373e-19)
(2.80965 -0.228188 -1.10525e-19)
(2.96791 -0.170439 0)
(3.16671 -0.110614 -1.07107e-19)
(3.39017 -0.148019 -2.10883e-19)
(3.42486 -0.247036 1.0375e-19)
(3.49347 -0.110327 1.02228e-19)
(3.79108 0.25986 0)
(4.16643 0.557094 0)
(4.0457 0.564205 0)
(3.40607 0.228209 9.66707e-20)
(2.90037 -0.325692 -9.54098e-20)
(2.79118 -0.798893 -1.87114e-19)
(3.13515 -0.778954 9.16225e-20)
(3.48993 -0.298365 -9.01064e-20)
(3.18994 0.232806 -8.87654e-20)
(2.25855 0.603686 0)
(1.12279 0.814191 0)
(0.0380092 0.88918 8.69045e-20)
(-0.933759 0.874756 0)
(-1.79593 0.811865 0)
(-2.55924 0.723452 -1.75206e-19)
(-3.22024 0.618244 0)
(-3.76768 0.499317 -8.89473e-20)
(-4.18905 0.368961 8.86899e-20)
(-4.47317 0.229825 0)
(-4.61132 0.085707 -8.85962e-20)
(-4.60046 -0.0574208 0)
(-4.43143 -0.192977 0)
(-4.11426 -0.3139 8.32248e-20)
(-3.66795 -0.413001 -1.61911e-19)
(-3.11817 -0.485084 7.80129e-20)
(-2.49404 -0.528137 0)
(-1.82565 -0.543697 0)
(-1.14226 -0.535997 -6.97813e-20)
(-0.469846 -0.510888 0)
(0.169538 -0.474227 -6.47466e-20)
(0.760845 -0.431116 0)
(1.29557 -0.385298 0)
(1.77235 -0.33898 0)
(2.1925 -0.294805 -5.69176e-20)
(2.56321 -0.253038 0)
(2.88431 -0.216602 5.3877e-20)
(3.17309 -0.184345 0)
(3.41751 -0.160076 0)
(3.65527 -0.13671 -9.96312e-20)
(3.86677 -0.116924 9.70473e-20)
(4.08097 -0.0951894 0)
(4.22599 -0.0756615 0)
(4.39311 -0.0434495 0)
(4.61091 0.0181385 -2.60602e-19)
(4.70708 0.0563409 0)
(4.58568 0.0194256 1.63605e-19)
(-0.0515353 1.08346 1.09438e-22)
(-0.0867577 1.04269 2.30645e-19)
(-0.153584 0.922235 0)
(-0.238725 0.743641 -2.27418e-19)
(-0.20852 0.410495 0)
(-0.0178507 -0.0965637 0)
(0.0896682 -0.38585 -8.34878e-23)
(0.165616 -0.460285 1.10334e-19)
(0.106375 -0.282741 1.09646e-19)
(0.0329303 -0.127732 1.08675e-19)
(-0.112292 0.155786 0)
(-0.377388 0.476381 0)
(-0.805501 0.743115 -1.05978e-19)
(-1.31243 0.949568 -2.10076e-19)
(-1.80613 1.15369 2.08227e-19)
(-2.29792 1.34077 0)
(-2.78756 1.45948 2.04648e-19)
(-3.25392 1.51639 -1.01105e-19)
(-3.68877 1.51425 0)
(-4.08446 1.46199 1.99748e-19)
(-4.43713 1.37257 9.86147e-20)
(-4.7456 1.25427 -1.9671e-19)
(-5.00966 1.11366 -9.7045e-20)
(-5.22963 0.955263 0)
(-5.40549 0.782961 1.92062e-19)
(-5.53685 0.599716 1.90408e-19)
(-5.62309 0.408264 0)
(-5.66319 0.211622 1.86858e-19)
(-5.65615 0.0129132 0)
(-5.60155 -0.184964 1.82842e-19)
(-5.50028 -0.379317 8.97696e-20)
(-5.35413 -0.56781 0)
(-5.1657 -0.749124 0)
(-4.93779 -0.922331 0)
(-4.67307 -1.08581 0)
(-4.37454 -1.23703 0)
(-4.04593 -1.3736 0)
(-3.691 -1.49424 1.64268e-19)
(-3.31253 -1.59948 -2.4257e-19)
(-2.91258 -1.69226 0)
(-2.49206 -1.77628 0)
(-2.0499 -1.85108 0)
(-1.58572 -1.90943 -6.72484e-22)
(-1.10226 -1.94227 1.51157e-19)
(-0.600408 -1.94647 2.99568e-19)
(-0.078482 -1.9162 -2.96311e-19)
(0.47467 -1.83677 -1.46696e-19)
(1.05185 -1.70684 1.4469e-19)
(1.60989 -1.54668 2.57452e-22)
(2.14755 -1.35683 1.42042e-19)
(2.66319 -1.03733 0)
(3.17369 -0.547646 1.3953e-19)
(3.68665 -0.0640808 1.4496e-22)
(4.14687 0.381293 0)
(4.60252 0.930535 0)
(4.95553 1.43358 -1.34493e-19)
(4.6648 1.41647 0)
(3.98297 1.0224 0)
(3.65666 0.90549 1.32193e-19)
(3.55195 1.05347 2.62617e-19)
(3.34248 1.08143 -1.30455e-19)
(3.04953 0.719279 0)
(2.77558 -0.110795 1.28995e-19)
(2.58372 -1.3182 0)
(2.56683 -2.53735 1.27005e-19)
(2.82883 -3.10363 1.23244e-19)
(3.39093 -2.60939 -2.44725e-19)
(3.85757 -1.43057 -1.21861e-19)
(4.0782 -0.277223 0)
(4.4522 0.797673 2.36989e-19)
(3.8889 2.51766 0)
(2.9836 2.94346 3.43028e-19)
(2.83145 1.06866 2.25919e-19)
(1.24523 1.30734 2.23851e-19)
(-1.03569 2.9294 -2.2218e-19)
(-2.63607 3.64369 3.3072e-19)
(-3.59674 3.54939 0)
(-4.14896 3.10516 0)
(-4.63913 2.57329 -2.22497e-19)
(-5.02715 2.07222 -3.3365e-19)
(-5.40449 1.6532 0)
(-5.73915 1.32519 1.11443e-19)
(-6.05388 1.07924 0)
(-6.34163 0.900522 -3.37699e-19)
(-6.61054 0.774925 1.02703e-21)
(-6.86362 0.689837 -8.51957e-22)
(-7.10589 0.636256 2.25282e-19)
(-7.34208 0.606961 0)
(-7.57621 0.596806 -2.24335e-19)
(-7.81221 0.601679 4.87913e-22)
(-8.05345 0.618287 0)
(-8.3031 0.643346 0)
(-8.56384 0.673127 0)
(-8.83779 0.702753 2.19933e-19)
(-9.12604 0.725662 0)
(-9.4282 0.733097 0)
(-9.74093 0.71337 0)
(-10.0546 0.651446 0)
(-10.348 0.53039 0)
(-10.5849 0.336801 2.13165e-19)
(-10.7172 0.0697286 0)
(-10.6985 -0.252177 2.05766e-19)
(-10.4995 -0.592314 2.01517e-19)
(-10.1191 -0.908386 -1.96703e-19)
(-9.58547 -1.16468 0)
(-8.94584 -1.34076 -1.86286e-19)
(-8.24932 -1.43524 0)
(-7.5367 -1.46162 -1.76108e-19)
(-6.83626 -1.43967 1.71358e-19)
(-6.1646 -1.38882 5.0152e-19)
(-5.52936 -1.32456 0)
(-4.93214 -1.25763 4.7639e-19)
(-4.37074 -1.19458 1.55379e-19)
(-3.84098 -1.1386 0)
(-3.33797 -1.09058 2.95333e-19)
(-2.85663 -1.05014 2.88404e-19)
(-2.39192 -1.01616 -4.22378e-19)
(-1.9397 -0.986844 0)
(-1.49736 -0.960288 -1.34421e-19)
(-1.06241 -0.936525 -1.31508e-19)
(-0.635049 -0.918811 -3.86464e-19)
(-0.217669 -0.909346 0)
(0.193026 -0.899594 0)
(0.610491 -0.870878 0)
(1.03248 -0.819433 -1.18829e-19)
(1.42656 -0.778575 0)
(1.80103 -0.767276 0)
(2.2462 -0.708438 1.12335e-19)
(2.73819 -0.521892 1.10491e-19)
(3.05577 -0.309366 0)
(3.20683 -0.248269 0)
(3.44588 -0.313441 2.10814e-19)
(3.69677 -0.276935 0)
(3.72136 -0.0732376 -2.04271e-19)
(3.78512 0.116663 -2.01386e-19)
(4.17378 0.259752 0)
(4.63181 0.535058 0)
(4.7569 0.76174 1.92861e-19)
(4.44559 0.448291 2.252e-22)
(3.85692 -0.289332 2.61619e-22)
(3.45678 -0.537014 0)
(3.23518 -0.0332457 3.60281e-19)
(2.63255 0.694965 0)
(1.6431 1.21565 0)
(0.669939 1.44108 0)
(-0.167814 1.46866 -1.73317e-19)
(-0.934282 1.40615 0)
(-1.67262 1.30174 3.4966e-19)
(-2.37917 1.16655 1.75104e-19)
(-3.02385 1.00185 0)
(-3.57523 0.811119 1.77304e-19)
(-4.00889 0.599868 0)
(-4.3063 0.373619 0)
(-4.4535 0.138545 5.31734e-19)
(-4.44254 -0.0972982 -3.50712e-19)
(-4.2733 -0.322712 0)
(-3.95462 -0.52447 -3.35379e-19)
(-3.50424 -0.690211 1.61856e-19)
(-2.94742 -0.810829 0)
(-2.31385 -0.882595 0)
(-1.63458 -0.907623 0)
(-0.939692 -0.892779 4.18568e-19)
(-0.256245 -0.847611 0)
(0.391819 -0.782288 1.29335e-19)
(0.987012 -0.706123 0)
(1.51748 -0.626822 0)
(1.9793 -0.549198 0)
(2.37385 -0.477895 0)
(2.70975 -0.412488 0)
(2.99472 -0.356745 0)
(3.24317 -0.308118 2.09885e-19)
(3.45577 -0.271013 0)
(3.64625 -0.246669 9.96154e-20)
(3.82394 -0.226351 -2.91157e-19)
(4.01074 -0.201971 0)
(4.21836 -0.15925 0)
(4.4447 -0.129461 1.78855e-19)
(4.66901 -0.0676999 1.73733e-19)
(4.8692 0.0131548 -1.68801e-19)
(4.84172 0.0761243 -1.63558e-19)
(0.0272707 1.09281 -3.48709e-19)
(0.0984564 1.19089 -3.46171e-19)
(0.0790663 0.988334 -2.29193e-19)
(0.0144756 0.746765 -1.13837e-19)
(0.130484 0.239491 0)
(0.34571 -0.398107 2.24251e-19)
(0.302692 -0.496001 -1.1137e-19)
(0.170297 -0.289838 0)
(-0.238312 0.482641 -1.09565e-19)
(-0.748084 0.880837 0)
(-1.08816 1.12567 2.15464e-19)
(-1.4582 1.4437 0)
(-1.98195 1.68888 1.05494e-19)
(-2.53689 1.9253 2.09064e-19)
(-3.07401 2.12744 -2.07209e-19)
(-3.56598 2.24954 0)
(-4.00915 2.29478 -2.03725e-19)
(-4.402 2.27099 0)
(-4.75032 2.18839 0)
(-5.06063 2.0597 -1.99053e-19)
(-5.33687 1.89616 0)
(-5.58129 1.70551 -1.69146e-21)
(-5.79314 1.49334 0)
(-5.9703 1.26331 0)
(-6.1094 1.01821 1.81599e-21)
(-6.20689 0.760506 -1.90042e-19)
(-6.25975 0.492875 -1.90171e-19)
(-6.26591 0.218708 -1.86582e-19)
(-6.22432 -0.0580962 0)
(-6.13506 -0.333413 -3.66825e-19)
(-5.99872 -0.602899 0)
(-5.8176 -0.862239 -1.79693e-19)
(-5.5954 -1.1076 0)
(-5.33687 -1.33615 0)
(-5.04724 -1.54649 1.72426e-19)
(-4.73167 -1.73873 0)
(-4.39491 -1.91364 -1.6753e-19)
(-4.04103 -2.07153 1.12177e-21)
(-3.67352 -2.21185 3.24482e-19)
(-3.29542 -2.33391 -3.20975e-19)
(-2.90938 -2.43809 0)
(-2.51718 -2.52675 0)
(-2.11795 -2.60347 -1.55027e-19)
(-1.70768 -2.66955 0)
(-1.28139 -2.71858 -1.49667e-19)
(-0.829872 -2.73477 1.48052e-19)
(-0.346283 -2.70172 1.46573e-19)
(0.184795 -2.60106 0)
(0.752515 -2.42598 -1.4353e-19)
(1.34273 -2.17374 -1.42111e-19)
(1.92285 -1.80727 2.82063e-19)
(2.45784 -1.34087 -1.39585e-19)
(2.98048 -0.880946 -1.38381e-19)
(3.49805 -0.426011 0)
(4.03775 0.155382 0)
(4.63855 0.849177 1.34608e-19)
(5.11496 1.4501 0)
(5.23143 1.75155 0)
(4.97854 1.64963 -2.63157e-19)
(4.62488 1.36278 -2.61904e-19)
(4.38394 1.13063 0)
(4.27603 0.874293 0)
(4.17525 0.295779 0)
(3.9572 -0.89517 0)
(3.71345 -2.41516 -2.51853e-19)
(3.60028 -3.30496 2.48384e-19)
(3.69214 -2.97059 2.4444e-19)
(3.84731 -1.81961 4.85576e-19)
(3.84041 -0.354206 0)
(3.44542 1.72703 1.07906e-21)
(2.5497 3.60845 0)
(2.4631 2.73302 -2.29124e-19)
(1.64041 2.10973 1.30068e-21)
(-0.59514 3.63693 -2.23149e-19)
(-2.35005 4.80367 2.2115e-19)
(-3.22596 4.79134 3.03015e-21)
(-3.72571 4.29951 0)
(-4.08767 3.66132 2.24779e-19)
(-4.39786 3.03048 2.22443e-19)
(-4.66257 2.4724 4.49448e-19)
(-4.91657 2.01403 0)
(-5.1604 1.65431 -2.26919e-19)
(-5.39961 1.38333 0)
(-5.63632 1.18408 4.52874e-19)
(-5.86885 1.04225 -2.25825e-19)
(-6.09901 0.944934 2.25739e-19)
(-6.32682 0.88288 -2.25482e-19)
(-6.5545 0.848888 -4.51763e-19)
(-6.78394 0.837594 2.24535e-19)
(-7.0181 0.84484 -2.23884e-19)
(-7.25998 0.867087 0)