/*--------------------------------*- C++ -*----------------------------------*\
  =========                 |
  \\      /  F ield         | OpenFOAM: The Open Source CFD Toolbox
   \\    /   O peration     | Website:  https://openfoam.org
    \\  /    A nd           | Version:  6
     \\/     M anipulation  |
\*---------------------------------------------------------------------------*/
FoamFile
{
    version     2.0;
    format      ascii;
    class       volVectorField;
    location    "0.3";
    object      UMean;
}
// * * * * * * * * * * * * * * * * * * * * * * * * * * * * * * * * * * * * * //

dimensions      [0 1 -1 0 0 0 0];

internalField   nonuniform List<vector> 
12225
(
(9.8286 0.020531 0)
(9.53167 0.034088 0)
(9.23652 0.0369358 0)
(8.93751 0.0381319 0)
(8.64189 0.0392981 0)
(8.35582 0.040239 0)
(8.08142 0.0406875 0)
(7.81813 0.0409172 0)
(7.56479 0.040856 0)
(7.32015 0.0410214 0)
(7.08336 0.0409098 0)
(6.85316 0.0414922 0)
(6.62846 0.0416311 0)
(6.40704 0.0433128 0)
(6.18703 0.0445442 0)
(5.96405 0.0484888 0)
(5.73659 0.0534128 0)
(5.49103 0.0559182 0)
(10.0136 0.0400886 0)
(10.0772 0.0682264 0)
(10.1199 0.0734316 0)
(10.1364 0.0755771 0)
(10.1345 0.0785788 0)
(10.1216 0.0815501 0)
(10.1008 0.083955 0)
(10.0736 0.0858007 0)
(10.0397 0.0875928 0)
(10.0002 0.0892788 0)
(9.95474 0.0914247 0)
(9.90467 0.093547 0)
(9.84857 0.0968008 0)
(9.78824 0.100165 0)
(9.72066 0.10607 0)
(9.64748 0.112387 0)
(9.56579 0.123017 0)
(9.46999 0.132503 0)
(9.99763 0.0362118 0)
(10.0302 0.0634833 0)
(10.0615 0.0664467 0)
(10.0816 0.0663986 0)
(10.0938 0.0685579 0)
(10.1031 0.0716648 0)
(10.1119 0.0744881 0)
(10.1199 0.076985 0)
(10.1269 0.0794495 0)
(10.132 0.0821955 0)
(10.1356 0.0853512 0)
(10.1369 0.0890832 0)
(10.137 0.0937334 0)
(10.1342 0.0994531 0)
(10.1313 0.107346 0)
(10.1247 0.116844 0)
(10.1205 0.130127 0)
(10.1112 0.142122 0)
(10.0096 0.0271837 0)
(10.0333 0.0538113 0)
(10.0584 0.0584825 0)
(10.0751 0.0591981 0)
(10.0844 0.0620576 0)
(10.0906 0.0661062 0)
(10.0963 0.069919 0)
(10.102 0.073225 0)
(10.1074 0.076394 0)
(10.1119 0.079731 0)
(10.1155 0.083515 0)
(10.1184 0.087873 0)
(10.1205 0.0931747 0)
(10.1223 0.0996847 0)
(10.1239 0.108002 0)
(10.1263 0.118385 0)
(10.1299 0.13083 0)
(10.1371 0.144581 0)
(9.99487 0.0217595 0)
(10.0137 0.0482448 0)
(10.0363 0.0559809 0)
(10.0531 0.0582682 0)
(10.0632 0.0616003 0)
(10.0699 0.0659633 0)
(10.0757 0.0701049 0)
(10.0815 0.0736587 0)
(10.0868 0.0769681 0)
(10.0913 0.0803924 0)
(10.095 0.0842565 0)
(10.0979 0.0887044 0)
(10.1001 0.0940773 0)
(10.1023 0.100582 0)
(10.1042 0.108649 0)
(10.1073 0.118393 0)
(10.1112 0.129563 0)
(10.1184 0.141858 0)
(9.99531 0.014608 0)
(10.0093 0.0404757 0)
(10.0283 0.0508675 0)
(10.0442 0.054719 0)
(10.0543 0.0583399 0)
(10.0609 0.0627759 0)
(10.0663 0.0671533 0)
(10.0716 0.0710238 0)
(10.0767 0.074593 0)
(10.0812 0.0782542 0)
(10.0849 0.0823082 0)
(10.0881 0.0869954 0)
(10.0907 0.0925029 0)
(10.0933 0.0991147 0)
(10.096 0.106913 0)
(10.0996 0.11611 0)
(10.1041 0.126132 0)
(10.1107 0.136797 0)
(9.9976 0.0122618 0)
(10.0079 0.0355902 0)
(10.0237 0.0471153 0)
(10.0383 0.0519568 0)
(10.0483 0.0555972 0)
(10.0549 0.0598334 0)
(10.0602 0.0642444 0)
(10.0654 0.0683349 0)
(10.0704 0.0721575 0)
(10.0749 0.0760502 0)
(10.0788 0.080312 0)
(10.0821 0.0851869 0)
(10.0851 0.0908095 0)
(10.0881 0.0973928 0)
(10.0913 0.104909 0)
(10.0953 0.113471 0)
(10.1002 0.122514 0)
(10.1066 0.131889 0)
(10.0012 0.0138262 0)
(10.0092 0.0340311 0)
(10.0224 0.0457349 0)
(10.0355 0.051255 0)
(10.0454 0.0548932 0)
(10.0522 0.0587945 0)
(10.0577 0.0630019 0)
(10.0628 0.0670945 0)
(10.0679 0.0710003 0)
(10.0726 0.0749737 0)
(10.0768 0.0792775 0)
(10.0806 0.0841493 0)
(10.0842 0.089676 0)
(10.0877 0.0960177 0)
(10.0916 0.103072 0)
(10.0961 0.110908 0)
(10.1013 0.119009 0)
(10.1076 0.127372 0)
(10.0027 0.00931412 0)
(10.0092 0.0280531 0)
(10.0203 0.0402429 0)
(10.0322 0.0469404 0)
(10.0418 0.051337 0)
(10.0489 0.0555783 0)
(10.0545 0.0600674 0)
(10.0597 0.0645223 0)
(10.0648 0.0688031 0)
(10.0697 0.0730888 0)
(10.0743 0.0776115 0)
(10.0785 0.0826151 0)
(10.0825 0.0881612 0)
(10.0866 0.0943835 0)
(10.091 0.101122 0)
(10.096 0.108452 0)
(10.1015 0.115874 0)
(10.1081 0.123539 0)
(9.99975 0.00349578 0)
(10.0047 0.0208009 0)
(10.0141 0.0329836 0)
(10.0246 0.0404984 0)
(10.0338 0.0455303 0)
(10.0409 0.0500044 0)
(10.0467 0.0545875 0)
(10.0521 0.0591946 0)
(10.0574 0.0636893 0)
(10.0626 0.0681769 0)
(10.0674 0.072837 0)
(10.0721 0.0778827 0)
(10.0766 0.0833601 0)
(10.0812 0.0893672 0)
(10.0861 0.0957438 0)
(10.0915 0.102552 0)
(10.0974 0.109374 0)
(10.104 0.116379 0)
(10.0081 0.00983121 0)
(10.0117 0.0244192 0)
(10.0192 0.0354991 0)
(10.0283 0.0429343 0)
(10.0367 0.0480282 0)
(10.0436 0.0523044 0)
(10.0493 0.0565359 0)
(10.0546 0.0608351 0)
(10.0597 0.0651188 0)
(10.0649 0.0694403 0)
(10.0699 0.0739131 0)
(10.0748 0.0787122 0)
(10.0796 0.0838578 0)
(10.0847 0.0894369 0)
(10.0899 0.0952718 0)
(10.0957 0.101446 0)
(10.1017 0.107547 0)
(10.1086 0.113826 0)
(9.9967 0.00388196 0)
(10.0001 0.0168989 0)
(10.0068 0.0274213 0)
(10.0152 0.0350476 0)
(10.0232 0.0405691 0)
(10.0301 0.0451766 0)
(10.0361 0.0496213 0)
(10.0417 0.054114 0)
(10.047 0.0586091 0)
(10.0524 0.0631309 0)
(10.0577 0.0677401 0)
(10.0629 0.0725886 0)
(10.0681 0.0776754 0)
(10.0735 0.0830992 0)
(10.0791 0.0886666 0)
(10.0851 0.0945025 0)
(10.0913 0.100175 0)
(10.0982 0.106022 0)
(10.0033 0.00519959 0)
(10.006 0.016754 0)
(10.0118 0.0265126 0)
(10.0191 0.0339749 0)
(10.0265 0.0395717 0)
(10.0331 0.0442107 0)
(10.0391 0.0485818 0)
(10.0446 0.0529614 0)
(10.0501 0.0573569 0)
(10.0555 0.0617834 0)
(10.0608 0.0662697 0)
(10.0662 0.0709361 0)
(10.0715 0.0757765 0)
(10.077 0.0808754 0)
(10.0826 0.0860582 0)
(10.0886 0.0914315 0)
(10.0948 0.0966186 0)
(10.1015 0.10192 0)
(9.99701 0.00411797 0)
(9.99932 0.0143189 0)
(10.0043 0.0230911 0)
(10.0106 0.0301106 0)
(10.0173 0.035631 0)
(10.0237 0.0402633 0)
(10.0297 0.0445514 0)
(10.0354 0.0487952 0)
(10.041 0.0530597 0)
(10.0466 0.0573755 0)
(10.0523 0.0617342 0)
(10.058 0.0662201 0)
(10.0637 0.0707912 0)
(10.0695 0.0755388 0)
(10.0755 0.0802785 0)
(10.0818 0.0851638 0)
(10.0882 0.0898048 0)
(10.0951 0.0945932 0)
(9.99684 0.00233659 0)
(9.99881 0.0115855 0)
(10.0031 0.0195087 0)
(10.0086 0.0259765 0)
(10.0147 0.0312486 0)
(10.0207 0.0357847 0)
(10.0265 0.0399928 0)
(10.0321 0.0441287 0)
(10.0377 0.0482636 0)
(10.0434 0.0524311 0)
(10.0491 0.0566084 0)
(10.0549 0.0608612 0)
(10.0608 0.0651351 0)
(10.0668 0.0695217 0)
(10.073 0.0738433 0)
(10.0793 0.0782687 0)
(10.0859 0.0824236 0)
(10.0926 0.0867201 0)
(10.008 0.000820678 0)
(10.0094 0.00863602 0)
(10.0131 0.0153652 0)
(10.0181 0.0211195 0)
(10.0236 0.0260526 0)
(10.0293 0.0303932 0)
(10.035 0.0344037 0)
(10.0408 0.0383047 0)
(10.0465 0.0421845 0)
(10.0524 0.046078 0)
(10.0583 0.0499464 0)
(10.0644 0.0538251 0)
(10.0705 0.0576586 0)
(10.0768 0.0615346 0)
(10.0832 0.0653118 0)
(10.0897 0.0691568 0)
(10.0963 0.0727482 0)
(10.1031 0.0764688 0)
(9.99784 0.00220853 0)
(9.99882 0.0080068 0)
(10.002 0.0131857 0)
(10.0066 0.017739 0)
(10.012 0.0217661 0)
(10.0176 0.0254344 0)
(10.0235 0.0289026 0)
(10.0294 0.0322978 0)
(10.0354 0.0356659 0)
(10.0415 0.0390409 0)
(10.0478 0.0423932 0)
(10.0543 0.0457597 0)
(10.0608 0.0490748 0)
(10.0674 0.0524184 0)
(10.074 0.0556406 0)
(10.0808 0.0589149 0)
(10.0876 0.0619234 0)
(10.0946 0.0650681 0)
(10.0014 0.000670371 0)
(10.0025 0.00438423 0)
(10.0055 0.00783699 0)
(10.0097 0.0110283 0)
(10.0147 0.0140457 0)
(10.0202 0.0169711 0)
(10.0259 0.0198417 0)
(10.0319 0.0226818 0)
(10.0379 0.0254838 0)
(10.0441 0.0282686 0)
(10.0505 0.0310169 0)
(10.0569 0.0337678 0)
(10.0634 0.0364642 0)
(10.07 0.0391742 0)
(10.0766 0.0417675 0)
(10.0832 0.0443937 0)
(10.0899 0.0467877 0)
(10.0966 0.0492928 0)
(9.99537 0.000733094 0)
(9.99635 0.00220998 0)
(9.99935 0.00377457 0)
(10.0037 0.00545668 0)
(10.0088 0.00727224 0)
(10.0144 0.00920442 0)
(10.0204 0.0112119 0)
(10.0265 0.0132662 0)
(10.0328 0.0153348 0)
(10.0393 0.0174202 0)
(10.0458 0.0194954 0)
(10.0524 0.0215846 0)
(10.0591 0.0236323 0)
(10.0658 0.0256896 0)
(10.0725 0.0276433 0)
(10.0792 0.0296179 0)
(10.0858 0.0313933 0)
(10.0925 0.0332589 0)
(10.0034 -0.00125645 0)
(10.0047 -0.00211197 0)
(10.0081 -0.00246999 0)
(10.0129 -0.0022785 0)
(10.0185 -0.00165097 0)
(10.0245 -0.000726471 0)
(10.0307 0.000378709 0)
(10.037 0.00160348 0)
(10.0435 0.0029101 0)
(10.0501 0.00429241 0)
(10.0567 0.00571334 0)
(10.0634 0.00717154 0)
(10.0702 0.00860767 0)
(10.0769 0.0100534 0)
(10.0836 0.0114208 0)
(10.0903 0.0128097 0)
(10.0969 0.0140514 0)
(10.1035 0.0153732 0)
(10.0045 -0.0012884 0)
(10.006 -0.0044008 0)
(10.01 -0.00655032 0)
(10.0155 -0.0076356 0)
(10.0218 -0.00788332 0)
(10.0282 -0.0076275 0)
(10.0346 -0.00712173 0)
(10.0411 -0.00646645 0)
(10.0477 -0.00568531 0)
(10.0544 -0.00477886 0)
(10.0612 -0.0037918 0)
(10.068 -0.00275134 0)
(10.0749 -0.00172442 0)
(10.0817 -0.000694887 0)
(10.0885 0.000269039 0)
(10.0952 0.00125148 0)
(10.1019 0.00212274 0)
(10.1084 0.00306701 0)
(10.0107 -0.00129152 0)
(10.0129 -0.00685261 0)
(10.0179 -0.0107629 0)
(10.0245 -0.0129853 0)
(10.0315 -0.013912 0)
(10.0384 -0.0141295 0)
(10.0451 -0.0140769 0)
(10.0517 -0.0139189 0)
(10.0585 -0.0136645 0)
(10.0653 -0.0132816 0)
(10.0722 -0.0127856 0)
(10.0791 -0.0121933 0)
(10.086 -0.0115642 0)
(10.0928 -0.0108966 0)
(10.0995 -0.0102595 0)
(10.1061 -0.00959782 0)
(10.1127 -0.00902593 0)
(10.1191 -0.00840057 0)
(9.99997 -0.00338663 0)
(10.0034 -0.0110511 0)
(10.01 -0.0163062 0)
(10.018 -0.0191157 0)
(10.026 -0.0202974 0)
(10.0333 -0.0207742 0)
(10.0403 -0.0210391 0)
(10.0472 -0.0211845 0)
(10.0542 -0.0211741 0)
(10.0613 -0.0209934 0)
(10.0685 -0.0206919 0)
(10.0756 -0.0203124 0)
(10.0825 -0.0199112 0)
(10.0894 -0.0194851 0)
(10.0962 -0.0190828 0)
(10.1029 -0.0186614 0)
(10.1095 -0.0183093 0)
(10.116 -0.0179219 0)
(9.99925 -0.00563061 0)
(10.0038 -0.0153524 0)
(10.0121 -0.0216686 0)
(10.0217 -0.0246912 0)
(10.0306 -0.0259245 0)
(10.0382 -0.0266349 0)
(10.0452 -0.027258 0)
(10.0521 -0.0277417 0)
(10.0592 -0.027992 0)
(10.0665 -0.0280173 0)
(10.0737 -0.0279062 0)
(10.0808 -0.0277279 0)
(10.0878 -0.0275416 0)
(10.0947 -0.027345 0)
(10.1015 -0.0271731 0)
(10.1082 -0.0269843 0)
(10.1147 -0.0268442 0)
(10.1212 -0.0266628 0)
(10.0006 -0.00784587 0)
(10.0065 -0.0197662 0)
(10.0169 -0.0263677 0)
(10.028 -0.0289333 0)
(10.0375 -0.0300397 0)
(10.0453 -0.0310306 0)
(10.0524 -0.0320204 0)
(10.0596 -0.0327784 0)
(10.0669 -0.0332199 0)
(10.0744 -0.0334164 0)
(10.0817 -0.0334853 0)
(10.0889 -0.0334931 0)
(10.0959 -0.0334821 0)
(10.1029 -0.033447 0)
(10.1097 -0.0334193 0)
(10.1164 -0.0333728 0)
(10.123 -0.0333665 0)
(10.1294 -0.0333276 0)
(10.001 -0.0125057 0)
(10.0091 -0.0271583 0)
(10.0222 -0.0331418 0)
(10.0347 -0.0346606 0)
(10.0444 -0.0355097 0)
(10.052 -0.036744 0)
(10.0591 -0.0380145 0)
(10.0663 -0.0389408 0)
(10.0738 -0.039482 0)
(10.0813 -0.0397738 0)
(10.0886 -0.0399479 0)
(10.0958 -0.0400682 0)
(10.1029 -0.0401572 0)
(10.1098 -0.0402158 0)
(10.1166 -0.0402596 0)
(10.1233 -0.0402902 0)
(10.1299 -0.0403358 0)
(10.1363 -0.0403814 0)
(9.99592 -0.014361 0)
(10.0086 -0.0325038 0)
(10.0252 -0.0372571 0)
(10.0389 -0.0375228 0)
(10.0486 -0.0381019 0)
(10.0562 -0.0394839 0)
(10.0635 -0.0409181 0)
(10.0711 -0.0419981 0)
(10.079 -0.0427589 0)
(10.0868 -0.0433573 0)
(10.0945 -0.0438934 0)
(10.1019 -0.0443873 0)
(10.1092 -0.0448407 0)
(10.1164 -0.0452403 0)
(10.1234 -0.045616 0)
(10.1303 -0.0459591 0)
(10.1371 -0.0463348 0)
(10.1437 -0.0466768 0)
(10.0053 -0.0185712 0)
(10.0249 -0.0393562 0)
(10.0462 -0.0427759 0)
(10.0616 -0.0419944 0)
(10.072 -0.0419863 0)
(10.0805 -0.0427913 0)
(10.0892 -0.0435851 0)
(10.0984 -0.0440739 0)
(10.1076 -0.0443454 0)
(10.1167 -0.0445597 0)
(10.1254 -0.044769 0)
(10.1339 -0.0449986 0)
(10.1421 -0.0452081 0)
(10.15 -0.045434 0)
(10.1578 -0.0456313 0)
(10.1653 -0.0458847 0)
(10.1727 -0.0461235 0)
(10.1796 -0.0465084 0)
(10.0186 -0.0305672 0)
(10.0615 -0.0523872 0)
(10.0969 -0.0569859 0)
(10.1189 -0.0579414 0)
(10.1317 -0.0591474 0)
(10.1397 -0.0605471 0)
(10.1453 -0.0616184 0)
(10.1491 -0.0622682 0)
(10.151 -0.0626317 0)
(10.151 -0.0628706 0)
(10.1492 -0.0630371 0)
(10.1461 -0.0631798 0)
(10.1416 -0.0632654 0)
(10.1363 -0.0633491 0)
(10.1299 -0.0633745 0)
(10.1232 -0.0634327 0)
(10.1154 -0.0634481 0)
(10.1078 -0.0635623 0)
(9.90385 -0.00991426 0)
(9.73957 -0.020953 0)
(9.57683 -0.0240115 0)
(9.41048 -0.0253988 0)
(9.245 -0.0266851 0)
(9.0849 -0.0278477 0)
(8.93204 -0.0287154 0)
(8.78641 -0.0292877 0)
(8.64735 -0.0296504 0)
(8.5144 -0.0298798 0)
(8.38713 -0.0300193 0)
(8.26559 -0.0300893 0)
(8.14925 -0.0301116 0)
(8.03844 -0.0300885 0)
(7.9321 -0.0300558 0)
(7.83123 -0.0299763 0)
(7.73368 -0.0299437 0)
(7.6422 -0.0297866 0)
(-0.0811244 0.0189536 -1.36522e-22)
(-0.161777 -0.0480777 1.40496e-22)
(-0.195301 -0.0991255 0)
(-0.189634 -0.153734 0)
(-0.113912 -0.207516 0)
(0.0109831 -0.242381 -1.4462e-22)
(0.160626 -0.255359 0)
(0.3219 -0.254133 0)
(0.488233 -0.243621 0)
(0.652516 -0.225065 0)
(0.806313 -0.201635 2.2057e-22)
(0.945106 -0.178823 0)
(1.06846 -0.157063 0)
(1.17454 -0.133293 0)
(1.26082 -0.107721 0)
(1.32648 -0.0828004 4.08704e-22)
(1.37194 -0.0603604 0)
(1.39836 -0.0405841 0)
(1.4079 -0.021197 0)
(1.40025 -0.000585543 0)
(1.37397 0.0217214 0)
(1.32569 0.044126 0)
(1.25718 0.0611444 0)
(1.17288 0.0688052 4.30452e-22)
(1.07291 0.075988 -4.14267e-22)
(0.960393 0.0732562 3.97813e-22)
(0.839636 0.0593363 3.82817e-22)
(0.714483 0.045145 0)
(0.592097 0.0221582 0)
(0.481464 0.0262511 -3.57984e-22)
(0.349945 0.0552167 -3.57481e-22)
(0.220057 0.0504819 0)
(0.0868294 0.0302461 0)
(-0.0373619 0.0188731 -3.86199e-22)
(-0.154006 0.0145744 0)
(-0.270787 0.0325049 0)
(-0.397726 0.0380966 4.4103e-22)
(-0.514544 0.0284047 0)
(-0.632766 0.0255573 4.88565e-22)
(-0.762013 0.0378331 1.03438e-21)
(-0.900713 0.050618 0)
(-1.0433 0.053839 0)
(-1.17313 0.0349446 0)
(-1.27569 0.0137203 0)
(-1.36148 0.0101685 0)
(-1.42475 0.00325827 1.44688e-21)
(-1.49567 -0.00695131 1.5051e-21)
(-1.54692 -0.0156421 1.55708e-21)
(-1.60065 -0.0100802 0)
(-1.68492 0.0152697 -1.63265e-21)
(-1.77607 0.0221542 0)
(-1.85329 0.0165113 1.69434e-21)
(-1.92817 0.00452078 1.71897e-21)
(-1.99124 0.00823136 0)
(-2.07563 0.00710559 0)
(-2.15818 0.0155557 0)
(-2.2616 0.0255712 1.75618e-21)
(-2.36853 0.0269874 0)
(-2.46388 0.0256205 0)
(-2.55999 0.0255927 0)
(-2.65479 0.0430993 0)
(-2.77026 0.0540741 0)
(-2.89263 0.0541409 0)
(-3.00837 0.0491066 0)
(-3.10511 0.0362439 0)
(-3.19206 0.032264 -1.95887e-21)
(-3.27311 0.0273323 0)
(-3.3423 0.0194778 0)
(-3.40002 0.00859062 2.03589e-21)
(-3.45436 0.00203637 2.04334e-21)
(-3.49987 -0.00814791 0)
(-3.53462 -0.000982523 -2.02229e-21)
(-3.59578 0.0176411 1.99498e-21)
(-3.66466 0.0254005 0)
(-3.74142 0.0261673 -1.93504e-21)
(-3.82381 0.0214451 0)
(-3.89665 0.0167416 0)
(-3.98277 0.0243651 1.86287e-21)
(-4.07242 0.0241688 0)
(-4.15784 0.0104429 -1.84135e-21)
(-4.20209 0.000500117 0)
(-4.2408 -0.0143089 1.81552e-21)
(-4.248 -0.00982306 1.79038e-21)
(-4.2949 0.0126091 1.75563e-21)
(-4.32935 0.00978876 3.43135e-21)
(-4.33375 0.00203174 -3.33959e-21)
(-4.32222 -0.00915807 0)
(-4.29347 -0.0192376 0)
(-4.25108 -0.0302103 0)
(-4.18944 -0.0385787 -2.80422e-21)
(-4.12804 -0.038966 -2.62535e-21)
(-4.0759 -0.0367538 2.43246e-21)
(-4.01437 -0.0319676 0)
(-3.99519 -0.0176662 -2.03742e-21)
(-3.98208 -0.0222822 -1.86002e-21)
(-3.9341 -0.0310749 -1.6991e-21)
(-3.86688 -0.0365602 0)
(-3.78749 -0.0375473 0)
(-3.70469 -0.0409131 0)
(-3.62526 -0.0413367 -9.6651e-22)
(-3.52759 -0.0530803 0)
(-3.41166 -0.0494275 0)
(-3.34161 -0.0382976 2.713e-22)
(-3.27272 -0.0363556 0)
(-3.19522 -0.0408766 0)
(-3.10747 -0.0343645 -3.56357e-22)
(-3.06216 -0.0307307 0)
(-3.00742 -0.0378575 0)
(-2.93932 -0.0386431 7.97547e-22)
(-2.86689 -0.0385151 9.05361e-22)
(-2.7828 -0.0409045 0)
(-2.68553 -0.0461495 -1.09879e-21)
(-2.56858 -0.0532398 0)
(-2.43431 -0.0589606 1.30203e-21)
(-2.28755 -0.0623607 0)
(-2.1321 -0.0640995 1.54764e-21)
(-1.97107 -0.064804 1.68924e-21)
(-1.80712 -0.0646496 0)
(-1.64324 -0.0630515 0)
(-1.48155 -0.0621463 0)
(-1.33099 -0.0560029 0)
(-1.17387 -0.0592728 0)
(-1.01877 -0.043853 0)
(-0.943404 -0.0217981 0)
(-0.871577 -0.0201924 2.77929e-21)
(-0.791496 -0.0190408 -2.82688e-21)
(-0.714531 -0.0226224 0)
(-0.629125 -0.0315284 0)
(-0.531305 -0.0349164 0)
(-0.422776 -0.0311549 0)
(-0.327032 -0.0282119 -5.74513e-21)
(-0.254411 -0.0269971 0)
(-0.15877 -0.02675 5.86524e-21)
(-0.140994 -0.000750148 -5.91621e-21)
(-0.20579 0.015588 0)
(-0.24864 0.0105342 0)
(-0.266454 0.0158662 0)
(-0.342134 0.021211 5.5041e-21)
(-0.372277 0.00787904 5.35202e-21)
(-0.346698 -0.00246533 0)
(-0.301046 -0.00658221 5.19213e-21)
(-0.241773 -0.012056 5.2125e-21)
(-0.148988 -0.0225609 -5.29411e-21)
(-0.0451873 -0.0266413 0)
(0.0409486 -0.0249968 0)
(0.12596 -0.0259231 -5.71735e-21)
(0.22191 -0.0280517 0)
(0.328211 -0.0289081 0)
(0.436917 -0.0291275 0)
(0.548883 -0.0299987 0)
(0.661837 -0.0296854 6.74406e-21)
(0.77861 -0.0291697 6.98083e-21)
(0.892861 -0.0266699 0)
(1.0145 -0.0290636 7.421e-21)
(1.13558 -0.030494 0)
(1.22538 -0.0253811 0)
(1.28948 -0.0225924 7.7673e-21)
(1.36066 -0.0229482 0)
(1.44547 -0.0220544 7.69361e-21)
(1.53259 -0.0189677 0)
(1.61364 -0.0150645 0)
(1.68232 -0.0112846 7.44335e-21)
(1.73528 -0.00900572 0)
(1.78084 -0.00916621 7.25067e-21)
(1.83371 -0.0103734 0)
(1.88942 -0.0112174 0)
(1.94349 -0.0127433 0)
(1.99753 -0.0146236 -7.0392e-21)
(2.05371 -0.0137719 0)
(2.106 -0.0102411 7.02308e-21)
(2.14876 -0.00547808 0)
(2.1748 -0.00113078 0)
(2.19031 0.00277251 0)
(2.18933 0.00439612 0)
(2.18855 0.00877686 0)
(2.15138 0.012736 0)
(2.11226 0.0214185 0)
(1.99423 0.019678 -1.2947e-20)
(1.95884 0.0225952 0)
(1.77314 0.00697018 0)
(-0.0326518 0.251995 4.52246e-22)
(-0.051087 0.160357 -4.64319e-22)
(-0.0276059 0.0417853 0)
(0.077613 -0.118466 3.57587e-22)
(0.224989 -0.285699 0)
(0.385116 -0.42135 1.43485e-22)
(0.546538 -0.507019 -4.16246e-22)
(0.70642 -0.547759 -4.52834e-22)
(0.860483 -0.549218 0)
(1.00308 -0.521562 -5.66498e-22)
(1.13053 -0.475415 -2.19277e-22)
(1.24049 -0.419749 0)
(1.3323 -0.360822 0)
(1.4057 -0.30219 0)
(1.46317 -0.243761 0)
(1.5083 -0.184688 -4.07396e-22)
(1.54029 -0.126574 0)
(1.55636 -0.0702055 1.05092e-21)
(1.5553 -0.0169236 0)
(1.53656 0.0344375 0)
(1.50177 0.0841541 -1.05853e-21)
(1.44801 0.13841 0)
(1.37286 0.192193 1.01221e-21)
(1.2846 0.238109 -4.28372e-22)
(1.19029 0.271723 4.1197e-22)
(1.08544 0.290298 -3.95347e-22)
(0.962914 0.309911 -3.80257e-22)
(0.821371 0.329981 0)
(0.665668 0.336958 0)
(0.505756 0.343296 3.5551e-22)
(0.33524 0.335526 -4.77392e-22)
(0.182553 0.299927 0)
(0.028557 0.302236 0)
(-0.13627 0.309052 3.83972e-22)
(-0.291511 0.287451 0)
(-0.438844 0.264579 0)
(-0.582938 0.245955 -4.38771e-22)
(-0.707059 0.232772 0)
(-0.840999 0.244897 6.44917e-22)
(-0.972323 0.259631 -1.02976e-21)
(-1.09407 0.266698 0)
(-1.20431 0.253889 0)
(-1.32517 0.237083 -2.78159e-21)
(-1.44293 0.20534 -2.91784e-21)
(-1.54224 0.148822 -3.0517e-21)
(-1.65576 0.108614 1.73708e-21)
(-1.76881 0.123223 -1.50075e-21)
(-1.88131 0.146352 -4.96341e-21)
(-1.97186 0.141546 3.50631e-21)
(-2.05652 0.138389 1.6284e-21)
(-2.13384 0.127027 0)
(-2.21678 0.131195 -1.69044e-21)
(-2.32027 0.13664 2.03762e-21)
(-2.41613 0.138867 0)
(-2.54123 0.163726 0)
(-2.67598 0.179883 0)
(-2.81232 0.185758 -1.75214e-21)
(-2.95926 0.20129 0)
(-3.09178 0.197593 3.86858e-21)
(-3.21453 0.185479 0)
(-3.34422 0.196152 3.93667e-21)
(-3.45065 0.195883 0)
(-3.53396 0.188059 -4.03578e-21)
(-3.60295 0.167877 0)
(-3.66264 0.140643 4.15888e-21)
(-3.71447 0.114407 -2.26328e-21)
(-3.75579 0.0914121 0)
(-3.79015 0.0727031 -4.3086e-21)
(-3.82315 0.0601823 -2.03315e-21)
(-3.86983 0.0613946 -2.04075e-21)
(-3.93252 0.0738453 0)
(-3.99798 0.0878216 -2.25675e-21)
(-4.07629 0.0967509 -1.99304e-21)
(-4.15985 0.103067 0)
(-4.25826 0.117615 1.93273e-21)
(-4.34828 0.125433 -4.08314e-21)
(-4.42341 0.117999 0)
(-4.51315 0.115371 -1.86037e-21)
(-4.57819 0.0969046 0)
(-4.61843 0.0696709 5.7849e-21)
(-4.63444 0.0396737 0)
(-4.67868 0.0404664 -5.68664e-21)
(-4.67919 0.0279426 -1.7883e-21)
(-4.66543 0.00612416 1.99102e-21)
(-4.62734 -0.0249845 3.88507e-21)
(-4.57548 -0.051551 -3.76743e-21)
(-4.51434 -0.0775192 0)
(-4.44922 -0.0957975 0)
(-4.39466 -0.0910334 0)
(-4.34872 -0.0842543 8.73113e-21)
(-4.29414 -0.0881135 2.62349e-21)
(-4.25612 -0.0770608 -2.43084e-21)
(-4.23247 -0.0603139 0)
(-4.20829 -0.066295 -2.43611e-21)
(-4.16009 -0.0919623 1.85917e-21)
(-4.08288 -0.118611 1.69794e-21)
(-3.99083 -0.138001 0)
(-3.88624 -0.147322 0)
(-3.78051 -0.152985 0)
(-3.66564 -0.164725 9.65855e-22)
(-3.5772 -0.149722 0)
(-3.49271 -0.131094 -1.36921e-21)
(-3.41868 -0.127847 -1.17792e-21)
(-3.33506 -0.126564 4.64136e-22)
(-3.28201 -0.108166 0)
(-3.23038 -0.0980821 1.78086e-23)
(-3.1913 -0.0991222 0)
(-3.12478 -0.109369 -9.58609e-22)
(-3.04113 -0.119539 4.11933e-22)
(-2.93895 -0.135235 5.32627e-22)
(-2.81775 -0.154989 0)
(-2.6769 -0.17551 2.96537e-21)
(-2.52113 -0.193067 -2.08745e-21)
(-2.35446 -0.205605 -1.30127e-21)
(-2.18153 -0.213102 0)
(-2.00417 -0.216648 -1.54661e-21)
(-1.82502 -0.217305 -4.84789e-21)
(-1.6462 -0.215235 0)
(-1.47092 -0.209156 -3.81434e-21)
(-1.30269 -0.198601 -4.1471e-21)
(-1.13889 -0.189647 -4.46561e-21)
(-1.02164 -0.163611 0)
(-0.90745 -0.132785 0)
(-0.792644 -0.119254 0)
(-0.671973 -0.114327 2.58735e-21)
(-0.55408 -0.110653 2.82493e-21)
(-0.435903 -0.118941 0)
(-0.318659 -0.130385 5.55999e-21)
(-0.211511 -0.127663 5.56539e-21)
(-0.0980262 -0.116313 0)
(0.0112404 -0.101815 5.74069e-21)
(0.0880056 -0.0833358 1.12955e-20)
(0.0856501 -0.0369362 -5.85896e-21)
(0.028377 0.00577162 -5.46463e-21)
(0.00569348 0.00962002 0)
(-0.0131862 0.0139333 0)
(-0.0284477 0.0148728 0)
(-0.0238112 -0.0037229 -5.50172e-21)
(0.0298498 -0.033202 4.87377e-21)
(0.101619 -0.0559165 1.00569e-20)
(0.184956 -0.0736125 -5.18778e-21)
(0.271341 -0.087008 4.87977e-21)
(0.371855 -0.101153 5.28881e-21)
(0.473101 -0.106645 0)
(0.572507 -0.107234 0)
(0.687426 -0.111758 -5.3933e-21)
(0.812811 -0.116715 0)
(0.945692 -0.119487 0)
(1.0792 -0.119941 1.22551e-20)
(1.21661 -0.120715 0)
(1.35387 -0.120728 6.47774e-21)
(1.49291 -0.118274 -6.97378e-21)
(1.6262 -0.112767 0)
(1.75612 -0.109522 7.18725e-21)
(1.86357 -0.100497 0)
(1.95294 -0.0892499 0)
(2.04365 -0.0880018 -7.76012e-21)
(2.14761 -0.0930329 1.52215e-20)
(2.25454 -0.0947266 -7.68645e-21)
(2.35715 -0.0889959 0)
(2.45078 -0.0780667 0)
(2.53111 -0.0654678 7.23894e-21)
(2.59876 -0.0560885 0)
(2.6607 -0.0532371 7.0585e-21)
(2.72203 -0.054648 0)
(2.77511 -0.0561638 0)
(2.83047 -0.0553205 0)
(2.88816 -0.0540135 7.03299e-21)
(2.94094 -0.0519953 0)
(2.98482 -0.0479763 -7.01695e-21)
(3.01465 -0.0412599 0)
(3.0315 -0.0332195 0)
(3.05065 -0.0238501 1.36868e-20)
(3.0601 -0.0158028 -1.35263e-20)
(3.06948 -0.00189727 0)
(3.04218 0.0142547 0)
(3.00887 0.0350386 0)
(2.9225 0.0409772 3.84185e-20)
(2.91463 0.0480046 0)
(2.80218 0.0381004 -2.49555e-20)
(0.0148462 0.273198 2.83266e-23)
(0.0623904 0.150377 6.74681e-22)
(0.17646 -0.103 0)
(0.343482 -0.382266 -7.72362e-22)
(0.529002 -0.624633 0)
(0.698946 -0.785976 0)
(0.843078 -0.859198 -1.73182e-22)
(0.966382 -0.863228 4.50677e-22)
(1.07048 -0.818155 7.30481e-22)
(1.15741 -0.742952 5.64783e-22)
(1.22876 -0.652503 0)
(1.28531 -0.555687 0)
(1.32758 -0.458755 -1.03141e-21)
(1.35551 -0.366196 -2.18889e-21)
(1.37043 -0.279354 2.29748e-21)
(1.37555 -0.196554 0)
(1.37457 -0.117619 2.45187e-21)
(1.36277 -0.0414478 -1.05079e-21)
(1.33937 0.030265 0)
(1.3027 0.107161 2.50617e-21)
(1.24951 0.190553 1.0577e-21)
(1.18433 0.2714 -2.43412e-21)
(1.1085 0.346541 -1.01064e-21)
(1.02629 0.400602 0)
(0.931364 0.447697 2.2377e-21)
(0.820832 0.501282 2.16766e-21)
(0.702696 0.547039 0)
(0.57734 0.583112 2.04889e-21)
(0.442487 0.606811 0)
(0.304068 0.616424 1.9906e-21)
(0.156485 0.621375 8.28703e-22)
(-0.0104854 0.628308 0)
(-0.172547 0.617208 0)
(-0.333824 0.598172 0)
(-0.480538 0.569489 0)
(-0.616592 0.539851 0)
(-0.764669 0.527237 0)
(-0.901773 0.51011 2.50971e-21)
(-1.02777 0.48738 -3.75685e-21)
(-1.14347 0.476194 0)
(-1.24809 0.469792 0)
(-1.34867 0.457943 0)
(-1.45498 0.441259 -3.78036e-22)
(-1.56078 0.409121 2.91536e-21)
(-1.68542 0.380171 6.48373e-21)
(-1.83046 0.37323 -6.75265e-21)
(-1.96753 0.360672 -3.70985e-21)
(-2.07737 0.323847 3.40938e-21)
(-2.1869 0.294265 4.34812e-22)
(-2.29034 0.287052 4.03032e-21)
(-2.41115 0.299287 0)
(-2.52915 0.312282 4.15563e-21)
(-2.66862 0.334559 4.39795e-22)
(-2.82532 0.367638 0)
(-2.9823 0.409238 0)
(-3.13187 0.423074 -4.24934e-21)
(-3.26545 0.41647 0)
(-3.39306 0.400358 0)
(-3.51038 0.380591 4.72734e-21)
(-3.61167 0.356667 8.65565e-21)
(-3.69018 0.327401 -3.93558e-21)
(-3.74653 0.291881 0)
(-3.78084 0.252797 4.03671e-21)
(-3.80383 0.214428 0)
(-3.82993 0.18793 5e-21)
(-3.86034 0.168859 4.22163e-21)
(-3.89472 0.150275 -9.32276e-21)
(-3.93138 0.134967 -5.04954e-21)
(-3.98194 0.139004 0)
(-4.04597 0.154361 9.34737e-21)
(-4.11548 0.169813 0)
(-4.19275 0.18696 1.35236e-20)
(-4.28288 0.208558 9.17264e-21)
(-4.3651 0.221593 9.09288e-21)
(-4.44687 0.229031 -9.00516e-21)
(-4.51457 0.226816 1.29982e-20)
(-4.57578 0.216389 0)
(-4.63474 0.201292 0)
(-4.6587 0.159846 -8.67925e-21)
(-4.65841 0.105172 -1.25526e-20)
(-4.66267 0.0686749 0)
(-4.65667 0.0411354 3.8753e-21)
(-4.61583 0.00461689 0)
(-4.55802 -0.0363393 -1.18838e-20)
(-4.48979 -0.0742481 6.1791e-22)
(-4.4216 -0.104763 -5.87711e-22)
(-4.35515 -0.125863 7.42162e-21)
(-4.29584 -0.13773 0)
(-4.23911 -0.13567 -6.77765e-21)
(-4.18533 -0.13605 4.91241e-22)
(-4.14564 -0.121074 0)
(-4.12065 -0.0987828 0)
(-4.08722 -0.0927473 0)
(-4.03281 -0.11521 4.47817e-21)
(-3.95565 -0.154355 0)
(-3.86263 -0.192868 0)
(-3.75821 -0.220506 0)
(-3.65754 -0.230321 0)
(-3.55482 -0.240066 0)
(-3.46186 -0.242937 2.80653e-21)
(-3.39119 -0.214809 0)
(-3.30846 -0.19578 1.37353e-21)
(-3.2319 -0.189712 9.10662e-22)
(-3.1687 -0.165973 -4.68475e-22)
(-3.12857 -0.137434 0)
(-3.08567 -0.128743 3.35031e-22)
(-3.03013 -0.144426 0)
(-2.94704 -0.167564 9.57559e-22)
(-2.84769 -0.193547 -1.20855e-21)
(-2.72573 -0.225929 -3.28481e-21)
(-2.58742 -0.26021 0)
(-2.43212 -0.292387 -4.67855e-21)
(-2.26691 -0.31828 -1.23085e-21)
(-2.09431 -0.336305 0)
(-1.91834 -0.346204 -4.41537e-21)
(-1.74009 -0.349661 -5.02768e-21)
(-1.56228 -0.348376 8.83931e-21)
(-1.38737 -0.342179 0)
(-1.21666 -0.33097 3.80938e-21)
(-1.05474 -0.314438 4.14225e-21)
(-0.920292 -0.285087 1.28802e-20)
(-0.799403 -0.248795 0)
(-0.660215 -0.222862 0)
(-0.515964 -0.207906 0)
(-0.377672 -0.195991 4.81895e-21)
(-0.248855 -0.187067 0)
(-0.125166 -0.194468 0)
(-0.0136345 -0.201571 -5.55611e-21)
(0.0787485 -0.189882 -5.56179e-21)
(0.173821 -0.16573 0)
(0.25301 -0.129834 0)
(0.257115 -0.0673452 -1.12874e-20)
(0.204477 0.00125299 0)
(0.168553 0.032573 1.13701e-20)
(0.179445 0.0341222 1.04982e-20)
(0.182663 0.0338386 0)
(0.201941 0.0171544 0)
(0.253586 -0.0206507 -9.74167e-21)
(0.331146 -0.0623734 -6.73316e-22)
(0.407172 -0.0934623 -6.0945e-22)
(0.494997 -0.117239 0)
(0.585825 -0.134983 -1.96433e-20)
(0.683991 -0.151108 0)
(0.778146 -0.158421 0)
(0.884875 -0.163669 0)
(1.01034 -0.173072 1.10968e-20)
(1.14181 -0.181328 0)
(1.27793 -0.186832 -2.27314e-20)
(1.41621 -0.189995 -1.22471e-20)
(1.56094 -0.192791 0)
(1.7071 -0.192739 -1.32062e-20)
(1.85346 -0.187361 0)
(1.99262 -0.176775 0)
(2.12029 -0.164779 -4.30503e-20)
(2.22487 -0.14692 2.91205e-20)
(2.32801 -0.132775 0)
(2.44335 -0.132116 2.9675e-20)
(2.56652 -0.136388 -1.52116e-20)
(2.68273 -0.135457 0)
(2.78631 -0.12729 0)
(2.876 -0.114601 0)
(2.95437 -0.100574 -4.33926e-20)
(3.03128 -0.0882917 0)
(3.11081 -0.0811346 -1.42928e-20)
(3.18853 -0.0773903 0)
(3.2566 -0.0741882 0)
(3.31576 -0.0715099 0)
(3.36741 -0.0688744 0)
(3.4129 -0.0621023 0)
(3.45085 -0.0510854 0)
(3.47608 -0.0386761 -2.72758e-20)
(3.48747 -0.0280867 0)
(3.49406 -0.0178511 -1.36797e-20)
(3.48851 -0.00718812 4.01085e-20)
(3.47635 0.0122765 0)
(3.43965 0.0395585 0)
(3.39878 0.0658884 -2.53182e-20)
(3.33287 0.0787881 -2.54706e-20)
(3.31522 0.0854347 2.45793e-20)
(3.24011 0.0947605 2.49419e-20)
(0.0309256 0.113556 -1.08852e-21)
(0.1639 -0.168939 -1.12934e-21)
(0.356385 -0.538843 -8.7104e-22)
(0.551952 -0.827774 -5.97977e-22)
(0.725556 -1.01519 0)
(0.852858 -1.08717 1.36801e-21)
(0.939815 -1.0688 -9.69201e-22)
(1.00258 -0.99799 0)
(1.04875 -0.898444 -7.29987e-22)
(1.08339 -0.781266 0)
(1.11197 -0.661393 2.25687e-21)
(1.13463 -0.545963 0)
(1.15076 -0.434985 1.03192e-21)
(1.15688 -0.329788 2.19015e-21)
(1.15046 -0.232013 -2.29892e-21)
(1.13377 -0.142728 0)
(1.10981 -0.0595647 -2.45344e-21)
(1.07505 0.0308262 0)
(1.02899 0.128933 0)
(0.97155 0.230529 -2.50685e-21)
(0.904144 0.329018 0)
(0.828226 0.418696 -4.10392e-22)
(0.746479 0.496317 0)
(0.656303 0.570374 0)
(0.556789 0.644429 4.11674e-22)
(0.452783 0.705241 -2.16469e-21)
(0.343351 0.752034 -2.51347e-21)
(0.231057 0.786561 -2.04483e-21)
(0.115169 0.809258 0)
(-0.0142939 0.832504 -4.3834e-21)
(-0.156322 0.865744 0)
(-0.298265 0.879358 -2.41845e-21)
(-0.438492 0.86996 0)
(-0.581972 0.850165 0)
(-0.719366 0.813966 2.58755e-21)
(-0.863666 0.789433 0)
(-1.00164 0.759969 -2.77283e-21)
(-1.12644 0.718731 3.79863e-22)
(-1.25165 0.691695 5.63707e-21)
(-1.37233 0.675599 -6.29049e-21)
(-1.48988 0.66875 0)
(-1.60041 0.650644 0)
(-1.70894 0.622886 -3.99791e-21)
(-1.82504 0.598358 0)
(-1.96233 0.596601 -3.43214e-21)
(-2.08361 0.568475 3.57401e-21)
(-2.18859 0.521838 3.70927e-21)
(-2.2886 0.478838 0)
(-2.40089 0.470855 -3.94049e-21)
(-2.51629 0.476714 -4.03054e-21)
(-2.66844 0.51225 9.24346e-21)
(-2.83434 0.556951 -4.15483e-21)
(-2.99413 0.570765 -4.19091e-21)
(-3.1511 0.580807 0)
(-3.29508 0.597661 0)
(-3.41371 0.590801 4.24806e-21)
(-3.52243 0.573868 0)
(-3.62234 0.544978 0)
(-3.7028 0.501243 -8.59277e-21)
(-3.76501 0.450152 -8.65665e-21)
(-3.80548 0.393644 0)
(-3.83335 0.336635 0)
(-3.85719 0.288447 0)
(-3.88404 0.257156 0)
(-3.91353 0.236565 -9.16695e-21)
(-3.94814 0.220275 1.01524e-20)
(-3.98731 0.203485 9.32904e-21)
(-4.03342 0.198686 1.95671e-20)
(-4.09154 0.212298 0)
(-4.15907 0.235952 8.02214e-22)
(-4.23027 0.262226 0)
(-4.29823 0.28628 -9.25011e-21)
(-4.36021 0.303056 8.2265e-22)
(-4.40965 0.304351 -9.09961e-21)
(-4.4599 0.299783 9.01218e-21)