<?xml version="1.0" encoding="UTF-8"?>
<VTKFile type="UnstructuredGrid" version="0.1" byte_order="LittleEndian">
<UnstructuredGrid>
<Piece NumberOfPoints="2528" NumberOfCells="4800">
<PointData>
<DataArray type="Float64" Name="Color" Format="ascii">
0.032124878503858374
0.04008288009757946
0.040836818223895684
0.03251386907740487
0.04131038491687592
0.03114777139419553
0.03905442291816143
0.032873402189226436
0.0417293336419543
0.03150194940281217
0.03837022058890213
0.03418285171049728
0.04195969852746922
0.03108808618372613
0.03781832978900636
0.035337306128562916
0.041856730875500986
0.03170919636655575
0.037958680103500876
0.03609007839072725
0.04171951443755673
0.032592772093073534
0.03865799343862213
0.03656757053237025
0.041539132924447386
0.03335471687205333
0.03958198010649688
0.03739191892925273
0.040859658007236975
0.03335998852022462
0.04032426873806736
0.03699604061294277
0.039911080549385476
0.03338864766543614
0.04079761132698788
0.036134036232462745
0.03917003357985204
0.03345679206017053
0.041050016883932484
0.03552177802735307
0.03880260599070813
0.03354812240298244
0.04122026933720986
0.03512323498778557
0.03878263969046535
0.033168863518834364
0.04122770263225248
0.034890934964542215
0.03895721656196398
0.03270091382806862
0.04120733421380945
0.03475725835449886
0.03934889561800811
0.0316675930217305
0.040975935699927954
0.0400152225885916
0.03497482340183128
0.031032545839180536
0.04068152013160707
0.040492476206105806
0.03616886542464448
0.0321970673856665
0.04027177611968878
0.03668473215280275
0.040749067250537174
0.03228997664030731
0.04002677360257208
0.037495587033942825
0.040834497389985284
0.03345433331023481
0.03981510098553274
0.03822384093936241
0.040574189631088685
0.03464798316764229
0.03963382954746194
0.03797093860287543
0.04027396537291163
0.03526894432315083
0.039510698784739715
0.03775480124827544
0.03983333966918084
0.03544568138036686
0.03951400726748643
0.03645130609574437
0.03886790295680063
0.036293683320405556
0.03899525038670897
0.03753340460032373
0.033952031434405235
0.03600311273813927
0.038130660721752835
0.03665056056038392
0.03130226633154048
0.037552266414592333
0.035632652850581585
0.036888792939912964
0.029033185130711545
0.03635023429396363
0.03791375067076511
0.040497803320217206
0.030789309821507852
0.03827946385772973
0.03935936943793787
0.04010634396992266
0.042078989873714986
0.03646195806881707
0.045045440451234854
0.04238810444729579
0.044689178773684717
0.046295371649851834
0.04052507999386879
0.04312167381202806
0.001682117379598549
5.765133256926552E-4
5.476423119498572E-4
0.0016183104418402282
5.310831462161422E-4
0.001512307608107683
5.284487167303211E-4
0.0014625296275099326
6.067734287885835E-4
0.0031746285567645287
0.003122585628727505
0.0016145624298553485
6.143217483963866E-4
0.0015947892907202672
5.171326740498987E-4
0.001524058413949044
5.402188316242117E-4
0.0029845887896153204
0.002927468674340114
0.005391490592975587
0.0030937019287458883
0.005956113587451374
0.004810540544318623
0.0016078958838221804
6.401169623745367E-4
0.0027677724641111865
0.0014530734008077098
6.357951957552967E-4
0.0016522364746597927
5.60780222285733E-4
0.003031100109959644
0.0033135145228119704
0.005221339882231556
0.004956424380338139
0.008576608856577522
0.0016457078751571706
6.248748296115552E-4
0.004693518426578404
0.010923298478282342
0.00774807464837395
0.0029491290315492875
0.004712331663460671
0.0015159976251541793
6.625331877254013E-4
0.0030219706555867265
0.0015004367330255924
6.412160516772158E-4
0.0030646809738577303
0.0051302280752331285
0.004926374644596318
0.012964822391667486
0.0163097318785992
0.00804212907753111
0.011509627427049533
0.001604564697835797
6.549055057621307E-4
0.0033219479158596104
0.0016793516924511855
6.631529134228381E-4
0.02862869120094175
0.028169703983908462
0.021415743643424547
0.0016644938078370225
6.468133878408453E-4
0.0082210206789114
0.016117183738433866
0.012011231310033512
0.0059014108257472355
0.0030048392235326334
0.005323839816847192
0.0030182551518559194
0.02217384414112496
0.02882577190845126
0.021941154707195095
0.005329092210375781
0.008164908642295283
0.016565079785563566
0.012191711221073528
0.0019718353797329117
6.764947613522062E-4
0.0020364645306533845
6.924689985437444E-4
0.003586009662686206
0.0052489760462177525
0.0037196613552000746
0.0021347553737954927
7.012647359319836E-4
0.02788162604798711
0.0014850294045302395
6.381214184244717E-4
0.0028786507933685293
0.0014397574434990741
5.937065424160048E-4
0.011315867609038023
0.01685840152994136
0.0095273689624248
0.005893131047938633
0.005099690134959675
0.010800684694650392
0.022262495971562535
0.029923962421135996
0.021920639495275424
0.002210502777817257
7.834910223944987E-4
0.00815740396091568
0.012245748010543825
0.017429129483011896
0.00363065500988096
0.003800027309603765
0.006301602747184381
0.0057242456475428026
0.003986276804265659
0.0277642509032601
0.0028349129019833784
0.005414015413022336
0.0014361281782013554
5.744360576280875E-4
0.0028971129567405903
0.001497929482534365
5.145299827869818E-4
0.015564363720975308
0.00909765473987464
0.013782264038122691
0.022584405356249563
0.030683018864512728
0.022202895845811962
0.0024331958239300236
8.234450852678552E-4
0.004501101527936754
0.010847856012514303
0.016663580713725066
0.005897616490899039
0.005596984339111152
0.00894065523125088
0.006130692322260083
0.002555851857237106
8.544955271740286E-4
0.02778589953936936
0.005849186557213718
0.008921362556941462
0.0028390916551388552
0.0053464933060511375
0.0014179946870585497
4.8250149225662786E-4
0.0028564414936481258
0.0012677354936466588
4.3719377183923E-4
0.018203162016131282
0.013027543210459862
0.023893340228727748
0.03146936928643696
0.021064324047290025
0.00484930258112408
0.0060558103733478474
0.014831204863498567
0.008302624551885712
0.01226473284261566
0.008335465542580038
0.0026074926259484423
8.660406038993585E-4
0.005061094899691664
0.0027136621707720293
8.747438245606379E-4
0.02782207803729153
0.009821378787046935
0.005692479011076028
0.0026150291260627176
0.0049162444198413546
0.001245153488489096
4.1949493028584127E-4
0.0024492598426508676
0.0010542081591634297
3.5758155881318E-4
0.017179843887607304
0.013675033540005566
0.024263626561298032
0.03210592453395512
0.021672236502657236
0.007182226708621951
0.01663134867963351
0.011983338854681736
0.011529996430697282
0.00519082116326029
0.006407933565365116
0.002778818840260421
8.860009657603923E-4
0.005022552820885505
0.0026340323980928245
8.642989231961737E-4
0.028577081071779892
0.008802991550058814
0.0051477147855082265
0.002366014433583731
0.004876211060403226
0.0010051767082254494
3.2213586190707683E-4
0.002764698927932113
8.878855584203406E-4
2.66994285731721E-4
0.01877397522110108
0.013276968974558165
8.299655676267175E-4
1.917046273826195E-4
7.521990494026349E-4
1.2025290192137137E-4
0.025478981311146977
0.03262037872981172
0.022877487130956626
0.009341559111078918
0.017394997125824794
0.013986666501403807
0.007140005703659301
0.0048430682202247125
0.006660363959406418
0.002544272913941718
8.487761354840202E-4
0.004787224707895807
0.0026424568394987475
8.140270948358251E-4
0.029187734201992086
0.00881723312441979
0.0054007502011404205
0.002553207578535858
0.005137475149584462
0.0026238227020280104
0.01911250029341141
0.01426046159589178
0.002745853107730963
6.682229071308601E-4
5.446175280680918E-5
0.00268433335747891
0.025151973272462016
0.032046469312424934
0.022593593269569164
0.011660212162883897
0.0175218343412297
0.009767278267246124
0.0068493383455507555
0.004694293149703759
0.006581890565133708
0.002594155338181209
7.64876192982797E-4
0.004862443834213141
0.0024388787598897646
6.736636384973669E-4
0.029271993822245174
0.009294726812998247
0.005932221866937066
0.005527849323811533
0.01945853424180158
0.013883240609181289
0.006267934079002861
8.584584232083281E-4
6.221854936732772E-5
0.0025878860770756993
0.005073091172876706
6.499061263876882E-4
3.2057121299801226E-5
0.02464243911222516
0.03054990181232087
0.021982484793645566
0.0026215046289591024
5.818603777698675E-4
0.002375678925356421
4.8776229519256807E-4
0.014862920770264108
0.012799908679309916
0.009170199994727657
0.006823089324896635
0.005092352200534818
0.006748796470218954
0.00508636900063373
0.028249964792429944
0.010185937927595536
0.017489361421247383
0.010332421719549914
0.008324608136419479
0.002417861466873826
0.005340714378861619
5.599540670543361E-4
7.560076641088213E-6
0.0026872936639876516
4.7146837614860305E-4
3.943433247164127E-5
0.02256174020606513
0.030036186243528596
0.02119733701883189
0.002381043271274312
3.988326259549972E-4
0.004924458672444828
0.004844846765940109
0.0170095487841076
0.012798199046317862
0.009278195358922445
0.00749299052568325
0.007167926422777739
0.0020923222926393596
2.3070797893250957E-4
0.027730653510379833
0.015983029905460338
0.012507533885400185
0.010202619925126959
0.005555286107644338
0.0023673220091433
0.004751263909270065
7.171293685594723E-4
2.792179769436904E-5
0.0022683574981227687
0.023318339961271087
0.030004984731677235
0.022307861336078563
0.0048710785717737464
0.007239603432434316
0.006761935984022185
0.016454539508816344
0.01161133329601227
0.01046641475283831
0.0022617770813962474
8.46409193506666E-5
0.004918488879921935
0.002345762047657494
1.6311829261563728E-4
0.02749131259558008
0.01680003068811815
0.013042930570492378
0.008197514659997225
0.005303732376238903
6.231277039339935E-4
1.4636408757708688E-5
0.002015729293040381
0.004864530757244414
4.976818028593928E-4
4.607130277368851E-6
0.02315965198642698
0.029058275641326205
0.0214499962861518
0.007451865399973713
0.009676708026575635
0.014981556205988834
0.012969576005145273
0.0021372932790425345
4.8523784115474527E-4
0.0017929112438016851
8.595463093420492E-4
0.004918884576439137
0.007056329830730188
0.0048993134909040064
0.026565802306165943
0.01760449481096478
0.01255236978933921
0.008789700335157314
0.001943031072296035
0.004963716131145349
4.785334915689208E-4
9.564108111094033E-6
0.0019295126612941286
3.863986709534318E-4
1.7528300503072925E-5
0.022416723053990135
0.028805553870286882
0.021598909338027456
0.0013497351583143314
0.0012238462765366868
0.001060866836289073
0.0014723427337244013
0.00950793970218784
0.012902147178960733
0.01633272224784391
0.004686815507132684
0.004621023026857383
0.008020362114772318
0.007456866693033581
0.025984374494310517
0.015422284159757852
0.012293584177400755
0.008007440077188397
0.004828947944797109
0.001722300125375371
0.004337835707282181
5.748933512183639E-4
1.9951157551440077E-5
0.0021345531205530974
5.126426788568612E-4
2.0798472872950286E-5
0.011979764083257962
0.023027060579111223
0.030124528800007277
0.021774528150033546
9.155351780869896E-4
0.0017930792466319013
0.004421874487571323
0.0044370167173638205
0.012179608866645956
0.01612851504235902
0.007591215142346627
0.007333574392792809
0.011097045784433903
0.0011633429384184336
0.002206919665440719
0.025033095256593692
0.018071575460218262
0.007639532578666869
0.00457014638530323
0.002041376129090932
0.004438187958329662
4.549096218241844E-4
3.71200584437097E-6
0.0016037298293210113
4.966743428893526E-4
1.27574942412993E-5
0.012684788758977916
0.02427010678567366
0.03080475866286109
0.020848768532398403
0.004663061393081535
0.0077134251097443545
0.007388758283781323
0.01473907742250222
0.010999006495711295
0.013706798083518684
5.648006512532646E-4
0.0026627169760803137
0.004770000501072932
0.024782697928678297
0.018489561251882097
0.007813822899713095
0.004552756178598127
0.0019167680020149933
0.004028452223804063
4.1914008637565075E-4
1.2257919546610914E-5
0.0019717146333172587
3.592227621623872E-4
7.194804836652015E-6
0.012674141671852735
0.024402761725182475
0.03123885520284223
3.8684784029669584E-4
0.0029966263796977893
0.020822794745043362
0.00870394508540815
0.010629437887418068
0.016531296350638908
0.01408673685669628
0.004547967847646841
0.00811283138657365
0.024901417756645464
0.01838979198735151
0.007487033622905267
0.004441739411876777
0.0019404393083635458
0.004182124900866095
4.458814547141704E-4
1.1525626694255769E-5
0.0016693269583983872
0.012655310929141088
3.747129905618054E-4
1.777631141721051E-5
0.02506720658390633
0.03225974670797562
4.5492272777023103E-4
0.0032037973252750348
0.0046405290448439255
7.73914897519612E-4
0.0032141037422373114
0.02113787470089014
0.011102016218078081
0.013542813854754018
0.015823447921076664
0.009596176038686247
0.025060552103232273
0.018454150179811817
0.007578189749120229
0.00468509453833196
0.0016330185078922766
0.004478664906933814
0.012812601238645985
4.1589055429234117E-4
5.5034627753775606E-5
0.0017907111430218506
3.8682612250518384E-4
1.1042429560417994E-4
0.02516913582134091
0.03257943664538357
7.235548610885588E-4
0.003205242913956033
0.001238223390887301
0.0032069833048778986
0.004341852280236937
0.008891395659624924
0.0041137112030806165
0.020759679698180367
0.013956021814978447
0.015790333789191844
0.013698204798597598
0.024831007487560036
0.018777645251460754
0.008002335180179785
0.0050721854819132
0.013279736417419483
0.0021056831545502217
0.0048235995228293905
2.812032541564579E-4
1.6294225062920376E-4
0.0022210711945852752
0.025087800772165613
0.032165644558887395
0.0014265115494918772
0.0031057107292006723
0.0016936378036005652
0.002871562651028723
0.0038052986033672797
0.0037007671270585713
0.009918712942541716
0.008847365060052119
0.02048154164929913
0.01545619112082532
0.014982642109485425
0.025329874064223736
0.017154191767448857
0.009244945385574911
0.005709728366057161
0.013199210821972595
4.366164241030325E-4
1.7823489422840507E-4
0.0023206153338612904
0.005296800913717813
0.024486489183789897
0.03139820690439341
0.0016759873851211443
0.0025164197512293554
0.003393768817927865
0.003244946897874676
0.00881455892418817
0.00779897399984905
0.01478549558497318
0.020177152526840655
0.015247138387607734
0.025661178688356382
0.017034240474556674
0.009489608788764743
5.829098515929251E-4
1.5444425416646004E-4
0.0025735926228156038
0.006021035748195371
0.023346119210042118
0.02988854315970993
0.0015075547120626863
0.002034445189565459
0.0030496215750692706
0.008774014830815363
0.009033363454803413
0.014238811068794531
0.016310066109513507
0.019472226411187968
0.015389625472546619
0.0258231887626509
0.013489525384341677
0.017909770381763643
0.009525218481107914
9.807949175394386E-4
5.72803533772832E-5
0.003020596699086359
0.005856582071219935
0.022112758832762945
0.027961533939168812
7.853525940311746E-4
0.0015533419873657679
0.0033310993403580847
3.085688824674918E-4
0.0014581175874210117
0.010079757252948194
0.01497966392621762
0.01691184747734062
0.019853938100772194
0.014601920789506005
0.027721508130142503
0.013851684993210696
0.016576683001034206
0.0014660007097810183
3.6309803428992557E-4
0.009279052229494102
0.0035452084849728394
0.005754404833115675
0.018593751701381864
0.022256804244216805
0.026050610131261892
0.02560066216070536
5.64439561744663E-4
0.0014200469003618787
0.004284992969772289
0.011017363599524823
0.005047622742783566
0.01551218364520615
0.01710681283169665
0.013183123894144813
0.019801536424977007
0.02825321973339937
0.012944883272963408
0.014771762586560822
0.016418417871559825
0.0022162721884033394
0.0010097410998133455
0.004006787477575012
0.009117665795712273
0.006306819026334606
0.018571571836474784
0.016189502580901637
0.020878014030074884
0.02459911938416202
0.027803520802593986
0.023124315704286993
0.02077916024564189
0.02255615036031788
0.0013217553843535795
0.0010853172627563264
0.006086312725276564
0.014319753696637625
0.013657401932333935
0.017144760275276085
0.011175278153057648
0.01738810242918974
0.02868307073822657
0.026552000869660097
0.0245116610873355
0.012323910842030392
0.014005488226649892
0.003240680586249076
0.0018942525281359878
0.004587628017716449
0.006399662654579066
0.00920402437385661
0.014631054834995038
0.01667940292875095
0.015341451477193827
0.01731843327267023
0.019279811051346307
0.01759717558961579
0.021230247399179985
0.018020020453059307
0.014623491585755077
0.0032163843310684588
5.409720102212554E-4
0.008315126828373666
0.014402444365237693
0.017330002254365925
0.014817618291716439
0.008399951066673163
0.016499725202707243
0.027928213467900167
0.032357352295278904
0.028181172793433025
0.025193658253330944
0.02270919991293356
0.011820384295653534
0.013293721044823634
0.0040658498339219045
0.0029527807401844523
0.0054457003772598956
0.007229691394152104
0.009583688452404955
0.014833307744353713
0.014001238237030034
0.014793666918940445
0.01462018106954305
0.014286328780490834
0.01422964913882434
0.012351267982646642
0.010950725607295222
0.01829994663189557
0.013535669445056112
0.005243516011400669
2.89839981773277E-4
0.010638860254779406
0.014930330828374246
0.01812857688900975
0.01616954994341267
0.011478583092637376
0.006009783145958726
0.013268144913723664
0.03217081923656511
0.03209972507386763
0.02915111198362846
0.02559690666494676
0.022203762746142195
0.00509118213406906
0.004246046985367941
0.012373072317272617
0.006436509509251532
0.008491121032301882
0.01047643989009196
0.014939005565134333
0.014179731870428394
0.014109706727585302
0.015428783055910477
0.013345538152158762
0.014293673356435008
0.010345334430111841
0.009595868343672688
0.011452631298552006
0.009725054815533044
0.007425317088574229
0.013598795571521896
0.006747162560495401
0.001605923193901937
0.012423184471038072
0.018254258581417066
0.017514837369236747
0.009966229114989832
0.03487776686237123
0.0034837544755178845
0.01591192952317047
0.0411013774389009
0.03684641536326719
0.03810464692867248
0.03512981241004005
0.03224154635980774
0.03417759478787273
0.029460500122503733
0.006554006895913843
0.005627032042434511
0.007812129079089202
0.013419835733090288
0.009624102623975091
0.011929809349559967
0.015707568279248376
0.015546705150786573
0.01693245642548431
0.015319288418822968
0.012631327605130017
0.006919819996350002
0.009199292753241368
0.004262154041769954
0.009483499646861423
0.0034713139635374466
0.014696606480305534
0.01893995114357159
0.017791562581997652
0.007985071710705659
0.022444249571474006
0.0012556563947552556
0.008444024593738064
0.036383780403229045
0.023793569672286245
0.04244494216685474
0.03796055431170504
0.041282378523106414
0.03702355613204731
0.03577402293847163
0.03589697159916683
0.034972700636455085
0.03539284750879095
0.03307986352493398
0.008264251953050127
0.007117417264712886
0.009366895891434255
0.0119678393126348
0.014536779600167716
0.015471068134850347
0.013721191575752424
0.014952521091351503
0.01736599843874342
0.017149448201267747
0.01893891252487218
0.017620103097461644
0.015073276403493511
0.011800581439072418
0.007110968632243334
0.011940347638594561
0.005672538927718532
0.015794095263126747
0.020191191070287606
0.017012567104769505
0.00917547683681704
0.00397746705217744
0.00870374518808605
0.0015653936892121925
0.008536964309538141
0.02192965640156411
0.037394061377876826
0.0252697069228878
0.036654328135059165
0.02940629492513778
0.032336848770913154
0.032662864396061524
0.033368486071540894
0.03391073431778843
0.0316451502469386
0.010921787469365602
0.009817076920959157
0.008586750330325956
0.012973297337659928
0.01608662640419223
0.017160772121759524
0.017617383531355
0.019463573318682596
0.01951821244658442
0.019976008970339906
0.021187542826775287
0.020561958853286936
0.018194601312408007
0.014619853426728625
0.012718210107004696
0.0077543614371374525
0.016898578786983257
0.021359875029453107
0.01892269912201433
0.009344359351420388
0.0027202238548223252
0.0044949838282917825
0.0058939548112932
0.006134297950978075
0.011780238221198206
0.02328534825293524
0.012385328204191554
0.02736704347741248
0.016393782602955338
0.024579040312462667
0.02468216903613298
0.023516319840933744
0.014694324516066086
0.01273692819576945
0.01127514676227606
0.009906569950740796
0.019038254832176343
0.018086723268973693
0.019708045718132384
0.020620977953672317
0.021545537597898543
0.022536982684351285
0.022564995738380056
0.02404070429307374
0.023838655384108783
0.020967375383534038
0.014717695472848248
0.0094164682245574
0.01762589410444816
0.02215841624666629
0.02033259675130865
0.01281961648014326
0.003999166039777977
0.0067692831774625855
0.007678611575157467
0.001572730814709704
0.006498863186240711
0.002633958994970382
0.009000365896961226
0.003051107955163681
0.010712164135068099
0.00412808752531568
0.007333535739418663
0.01568934281267427
0.010714201311659542
0.01779957768619456
0.012845213957041525
0.01104164818504592
0.014228574623870388
0.014228463000414528
0.01190217077263686
0.021714390354443763
0.022201070979477506
0.022755665281171164
0.0224626140808124
0.025063860683286532
0.025682900866558164
0.025671986514982353
0.026022700059340872
0.02746846206998347
0.024992645010999338
0.018849635332403216
0.023063031112797696
0.021751803612141584
0.01488438505393721
0.007216113798449692
0.004335111288715781
0.0013457324094752947
0.007921236081793315
0.007277649747870791
0.004722725479717925
0.0031582974275301046
0.005720373631283444
0.003929891596480121
0.0034664986374022444
0.004412572839634848
0.0030907704833995514
0.015924810879299676
0.011681321854862276
0.018419698863070974
0.016077423198691047
0.01226265065103461
0.016082058742289903
0.012494795934508671
0.015709308716057743
0.012393739495396551
0.01479147157239258
0.01913465191066702
0.016117749058284617
0.01723748079289571
0.022965899921337133
0.024007817405258165
0.025930465451628918
0.026587926620879998
0.02748492180693193
0.028562622587268965
0.02926808564148819
0.027440766058524312
0.023535966142674367
0.023083724220700107
0.016388722415379895
0.008654391544119724
9.86659526930169E-4
0.004417555858181433
0.006822059370094506
0.005635528028976195
0.004230437059482916
0.004157450134293692
0.003974456859021581
0.004584345415524702
0.004592440042486819
0.01850971782095096
0.02376600477464774
0.018539751216471754
0.01829105020150792
0.017395828537514802
0.021870823467886977
0.021807135447463457
0.025573183101446073
0.026622987427480375
0.028166756312192665
0.02910236143039314
0.02984801524426775
0.029796238952266286
0.028304536744291262
0.02344977414962177
0.012277203972793619
0.0021261240962495297
0.0049407185578338435
0.002671170767327388
0.004867558934519816
0.005024045282176222
0.003761361057854099
0.0031384703141861332
0.0024577398122162986
0.003780849382193439
0.0235204850148384
0.02480288441094638
0.02294988103853542
0.0220879271470362
0.025209883995936936
0.02548249503574802
0.02669231709561758
0.027657663695661926
0.02858673600330375
0.029155358398662175
0.029202156383568056
0.027622176607510564
0.014640106879106786
0.005594858915039605
0.0028212861388058957
0.003962050240109906
0.004253991428626009
0.00377359437643243
0.002613361208168749
0.001036725698863654
0.017821179861429014
0.02535353623846363
0.022230607903868896
0.025814224076020267
0.025601162919421418
0.026142270680474155
0.02664047058802488
0.026912717648571557
0.02730665671008058
0.02724163772027697
0.025297871736726308
0.009488711809739021
0.005556755115905276
0.0028872674133281827
0.00397053586474132
0.004402778462280412
0.004118590646340158
0.0032073054787238515
0.013824591572595581
0.02094006374577175
0.022888448728854035
0.02346597956894435
0.02375461429485962
0.02377948943913411
0.023490490014830487
0.021194817202182942
0.004850235842527299
0.0020153387510533256
0.003223014035438894
0.0037578834805999826
0.003740741057593165
0.007273353377998996
0.013376081059584476
0.011279931886997814
0.014925338094177875
0.015987683972417684
0.014182000492546776
0.0010441464967538134
0.0019699644804075226
0.0020575900332226826
0.0018809821181159142
0.005665079238317284
0.005155408077910458
0.0046087318145147755
0.0015266938677667475
7.621787668719345E-4
2.1081469930611703E-4
2.097200003314446E-4
0
0
2.2828374542158153E-4
0
2.492769110965985E-4
0
2.0006657038240672E-4
0
1.9644492598315367E-4
0
2.5096126331587655E-4
0
2.6868736270972514E-4
0
1.9828913893442076E-4
0
2.080871853535918E-4
0
2.6986306809173783E-4
0
2.7964555012988037E-4
0
2.424315029194013E-4
0
2.4848964193623557E-4
0
2.791313343743431E-4
0
2.4567312516887946E-4
0
2.5120804553332694E-4
0
2.44180656938827E-4
0
2.694577228897457E-4
0
2.8052187294274174E-4
0
2.5297898672684634E-4
0
2.5412483566735687E-4
0
2.3983600742786296E-4
0
2.9019581900524273E-4
0
3.006722181423948E-4
0
2.1319306045753918E-4
0
1.9076439971538693E-4
0
3.094398772917774E-4
0
3.107763246045851E-4
0
1.7160394369649035E-4
0
1.6054852175643176E-4
0
3.208399793831542E-4
0
3.242819063393872E-4
0
1.3065006702736663E-4
0
1.039159336017319E-4
0
8.473799511190485E-5
0
3.4289357352013015E-5
0
3.133590512588994E-4
0
3.0025939965284797E-4
0
2.468882281846581E-6
0
2.814763857753954E-4
0
2.3812582776842474E-4
0
4.3822559841509355E-5
0
4.42480173758049E-5
0
1.7480343232178673E-4
0
1.3195576374560583E-4
0
4.291716897214256E-5
0
6.496464462249969E-5
0
8.177525206747033E-5
0
1.1659198725090818E-5
0
8.713428483318483E-5
0
1.0599120920669114E-4
0
2.1528180298466382E-4
0
7.347153780443094E-5
0
4.385782006362203E-5
0
3.928958493492352E-4
0
6.314939664759184E-4
0
5.0351589224454716E-5
0
4.333257962533518E-5
0
8.880044177482884E-4
0
0.0010963442123482845
0
5.47975868851895E-5
0
4.953876407435505E-5
0
0.0012137403295977838
0
0.0014961658126961136
0
2.5669330723297274E-5
0
3.886127673441932E-5
0
0.0018960852003703657
0
5.0508257420245356E-5
0
4.579061645522098E-5
0
0.0022417600613518994
0
4.17786070252535E-5
0
3.600960419407157E-5
0
0.002514383630157809
0
0.002487980733650989
0
4.7922121306364625E-5
0
7.682620200728239E-5
0
0.0022919185811968207
0
0.0022177216859513675
0
1.0637842962880363E-4
0
0.002161058652066638
0
0.0019710079402192274
0
1.5038814469267998E-4
0
0.001730188026861799
0
1.7800821476678444E-4
0
0.0014078525044216208
0
1.9046416445533623E-4
0
0.0010747622204312548
0
9.748878487958205E-4
0
1.7813820168991308E-4
0
0.0011049307237481617
0
3.7958959122883225E-5
0
0.001187072075243964
0
3.861070913575414E-4
0
0.0010159502179324237
0
9.856766356908528E-4
0
9.00926738117376E-4
0
0.0017633995831513184
0
7.7271720579189E-4
0
0.00269722872715348
0
4.003125537414826E-4
0
0.0037320855027331
0
2.3518295974309775E-4
0
0.004807216167560738
0
8.016965340979109E-4
0
0.00585439314463259
0
0
0.011528348887454666
0
0.019672396053665636
0.0019735497112101344
0
0
0.02456545715509515
0.003502301342279305
0
0.0067053137983659715
0
0.007282105276913102
0
0
0.0022576754852605056
0
0.02558040383475999
0.00476255702502949
0
0.005797822508430826
0
0.006634955612191148
0
0.007226541713569441
0
0.007537432020206266
0
0.007552579494410069
0
0
0.006101578194058732
0
0.020574067408749213
0
0.012897888394784613
0
0.007421548426878595
0
0.0176431397477497
0
0.0031518435780638356
0
0.0202786688263477
0
0.0021094639619973258
0
0.020745023268783816
0
0.0025479929121034308
0
0.019868123195048222
0
0.0027812203535047698
0
0.017538281024927087
0
2.9611484017209817E-4
0
0.014002643023679361
0
0.0021614651329274807
0
0.009050958706075625
0
0.002112109654475698
0
0.0029337110762914192
0
7.910070877062719E-4
0
7.324049494215696E-4
0
8.145727030942023E-4
0
8.260919545067987E-4
0.04544033307961054
0.04231772795272115
0.04245805263584531
0.04540220769417792
0.041583556384208874
0.04592318755005447
0.04261354769359439
0.045555168677915585
0.040734013722143095
0.08163158524110634
0.08080695742070873
0.07939181776808146
0.07660787110919617
0.04663575582107359
0.042823520189495555
0.04605417403777546
0.04042072403461865
0.048746509437176254
0.04307921562792918
0.0457419147470386
0.04052219823604632
0.04893709024069671
0.043015333748363895
0.04662174906779504
0.04082064672354346
0.04953424896607475
0.04284030481807679
0.04754920841623956
0.04126728138763123
0.04238105319153341
0.050087299459960884
0.047795090372613674
0.04167945050674618
0.04164327523839099
0.050049229015123715
0.04837573035738829
0.04186210699007425
0.04078185738297539
0.049517562142038674
0.047991382554819634
0.04177567809620833
0.08161861369558868
0.07744678663039319
0.08090725019243954
0.07956547870812415
0.039830551839984844
0.04911850934610019
0.08169969269436628
0.0806645478137782
0.07946205508790782
0.07759807015498628
0.047120072355453534
0.04169564043395768
0.04742258893743582
0.03946039050198354
0.047040606123366864
0.0414681293042937
0.03956031404011812
0.04778831405234562
0.04506826107994961
0.04114831160801992
0.046741442940090625
0.04025646717439079
0.044401817273962314
0.040744154999751085
0.04588024527763524
0.041087126906075806
0.04354814894100712
0.04027648494222137
0.04576437528155682
0.04142810325810518
0.04411049777561319
0.0397149785382882
0.010278869848563738
1.9426199740211832E-4
0.01138435141083058
0.011801096366439631
0.010281290710484442
0.0114152443968888
0.011665557345710792
0.010273653331330266
0.011698905235935192
0.011225491022764607
0.046075194421589215
0.04169379484584967
0.04639014202612043
0.03953685870594497
0.01027230739719141
0.011498776040322182
0.011467686221227139
0.0471303869101957
0.04188689013197742
0.04832340343284635
0.040107547705887106
0.048596627451433665
0.042162929801206304
0.049614112646913566
0.0417813421512808
0.0488900318380358
0.04233618010646107
0.05157807796062141
0.044701647609488505
0.042490747284418234
0.04966216584261928
0.05211770575362934
0.04706869521121517
0.042475422974753506
0.050483083480902864
0.051156245041928006
0.04722265340087612
0.042215947316359394
0.050340877543174976
0.04883509533278422
0.04469034605473162
0.04181502303292405
0.04911411289410877
0.045342810734444176
0.04122545305268285
0.04734533434154448
0.041468202636688746
0.04324934745643993
0.039160189428010424
0.046993719983396555
0.04151423954685627
0.0432763418616442
0.03855019881765657
0.04163643702869476
0.047729567926001734
0.04297268542205
0.03901604846267827
0.04515560505335578
0.04089349276891447
0.04400296291493315
0.03980654292804099
0.04574618722557932
0.040505470124269916
0.04417633148768552
0.08176781637132807
0.08024321153887772
0.07933221485770825
0.0764588862449687
0.05461957081501169
0.049944363238419734
0.05555637393950486
0.05198533910587956
0.04920314822606448