<?xml version="1.0" encoding="UTF-8"?>
<VTKFile type="UnstructuredGrid" version="0.1" byte_order="LittleEndian">
<UnstructuredGrid>
<Piece NumberOfPoints="2528" NumberOfCells="4800">
<PointData>
<DataArray type="Float64" Name="Color" Format="ascii">
0.03539595786667061
0.040647887896447514
0.0408772727029422
0.03530773404751914
0.04094248537358883
0.03460509291166041
0.04041756553932543
0.03500799074932708
0.040778223285173
0.03519635532253699
0.040151268592862624
0.03534207224234708
0.04042575865314173
0.03458783388344614
0.03993502616047642
0.03547867092982864
0.039913571726943965
0.03458498799125864
0.03982148483514772
0.035281724337423624
0.039526950297514726
0.03441743783005819
0.03994917742488153
0.0350127056337844
0.03955816766688328
0.034241497563787644
0.04024665571035825
0.03571054122734813
0.0396474793457947
0.03349887591923814
0.04055248450391208
0.03586325103530915
0.0399319128382641
0.03352119725899941
0.041281191815566956
0.03578918418563617
0.04055290544396358
0.03382188217262195
0.042093716617370415
0.03592592416916526
0.0411397799538417
0.03375593917093144
0.042884589236286415
0.036115243025876494
0.04156891107245764
0.033105046971501025
0.04335633886076116
0.03613778410161462
0.0418302963388107
0.03233539019641593
0.04305674874683132
0.035644942307193034
0.04198209071233314
0.031412496692371554
0.042249116342025266
0.04232366840787966
0.03552510897433691
0.031103045720085803
0.04143319120753345
0.0427838225438289
0.03652170659158228
0.03153019458111225
0.04108381730265865
0.03645416015575892
0.04297468379798527
0.031120025854483913
0.04068132393702543
0.036735838355677446
0.042952819175558245
0.03116144499920637
0.040663528431576904
0.036958015253678665
0.04268060999935955
0.031418469953509796
0.04004269306093394
0.03601112425324295
0.042310002411141044
0.03179080062824207
0.03953863976888788
0.03560443293729632
0.041824287018036053
0.03221102410797336
0.03933006803504036
0.03459636049959769
0.04119503861518967
0.0339071504899821
0.03942033470688841
0.04040450208282927
0.032975335131571186
0.034421157351427416
0.039807676040516896
0.039852691570418305
0.03184777614628421
0.04063178407225194
0.034742766475308835
0.03989795906601625
0.031222188971223752
0.03576070915594739
0.0417239907154807
0.041545342399767884
0.034172497043595325
0.038418061631160454
0.04306749353154595
0.039919757712990396
0.043893216186894166
0.03832911990940351
0.043781236742654266
0.04013907529161251
0.04412442469467055
0.04449941610145017
0.03862303129934175
0.03954672973855078
0.001506702099429484
3.8588990756849273E-4
4.1473165838339695E-4
0.0014858482236867773
4.528928817861398E-4
0.0013957238862664352
4.3583132828376424E-4
0.001253935441611792
4.076472868255377E-4
0.003200435014202137
0.0031542288370346137
0.001388282595101148
3.9820665779146064E-4
0.0014511429380841543
3.700864173036042E-4
0.0013095073276474369
3.3005554069957783E-4
0.002990304830391651
0.0029566093317409006
0.005583171482209753
0.003084096585775329
0.006207766169525543
0.00496489283532171
0.0013746167187707766
4.0884636400697754E-4
0.002662460054819869
0.0011280521692725734
3.272007124810191E-4
0.0013775973910876806
2.5618665474900316E-4
0.0030293903375581944
0.0032239055930467983
0.005387511224307772
0.005060764003934974
0.008924313396839497
0.0012556880708665381
2.721174127953801E-4
0.004803728423915029
0.011343158399530968
0.008006423429529487
0.0027558873175280957
0.00481241338903122
0.0011453895118629408
2.884498554350807E-4
0.002794162044708896
0.0010192259684771304
1.933806442061274E-4
0.0028565459275889317
0.005240911074850607
0.004967552770586496
0.013559503833750805
0.01700783809764465
0.008341180133191498
0.012056436719691426
0.001152438314516724
2.7271866094190844E-4
0.0029966795269324065
0.0011426450962459301
3.50048477473711E-4
0.029985113998245327
0.029770843021148966
0.023169748916488844
0.0011548194531313023
1.9547151365342658E-4
0.008412020643045545
0.016659252125009457
0.012358104126402989
0.006067099796855809
0.0026415665391307155
0.0054158157854064266
0.0026249678013176114
0.02367972695474506
0.029642591532324267
0.023811753224316567
0.005389279532207144
0.008478761400766727
0.017407746284547793
0.012811925398816287
0.0014251479631212744
3.662895151877458E-4
0.0014300779907566472
3.718761208484975E-4
0.0031870986817376513
0.005221551416331158
0.0032020775298456506
0.0014777000310770112
3.415455217435783E-4
0.029670129374669073
9.732495434173297E-4
1.9805101891923524E-4
0.0024176596225137115
9.080626197372862E-4
1.1416912476785787E-4
0.011461866303732896
0.017259995792226326
0.009633418210208028
0.006044916196560639
0.005088714410516133
0.010771498282498695
0.02316047189196785
0.030014570760358527
0.023641858285444326
0.0014529936096637434
3.6207723765026116E-4
0.00841504839419034
0.012852890352865189
0.01839202337808468
0.0030322214946090493
0.0031420818249889653
0.00627698843066553
0.005488253893650135
0.003297106694556667
0.02948036606647508
0.0023357882111957637
0.005294907974543721
9.024322969907341E-4
8.165071261689244E-5
0.0023716692794532586
8.810130096828579E-4
5.7392473073839714E-5
0.015529786398949004
0.00902812299332526
0.013637351940364284
0.02287730365030177
0.030085744364795105
0.023691496218886162
0.0015814464725428003
3.209396014366837E-4
0.003791554202753578
0.011324445612975952
0.017467065198306906
0.005593961277665433
0.005148702229750782
0.009084931273875274
0.005699671659862523
0.0015859181626611035
2.855221326700382E-4
0.029058341877220676
0.005617057405031032
0.008760509022492013
0.002183188880863145
0.00503845781155051
7.896030987167563E-4
9.861360370293776E-5
0.00217803043912082
5.945169528244876E-4
1.7764024601051796E-4
0.017924534620344573
0.012752562164732912
0.023305169041889978
0.029956122213948843
0.02200443121170709
0.004125918135948974
0.005534138557007573
0.01548403671333286
0.00822932384854829
0.012619876660953442
0.008151600153275094
0.001594622339775278
2.44110615538746E-4
0.004313593754750731
0.0016313614923350699
1.895766347750268E-4
0.028437562527753698
0.009603053684405248
0.005362697259275416
0.0018673633737497821
0.0044368687868348074
5.782069411856988E-4
2.0547684919548795E-4
0.0017201193704634223
3.856633081038552E-4
2.6787168186166336E-4
0.01653878341920165
0.013141868006766139
0.022987023659721353
0.0298759765849
0.022119881715413764
0.0067688425926679535
0.017076986493738535
0.012171391319931687
0.01160577972508363
0.004481949220779273
0.005771837624171087
0.0016674413740296599
1.791507631344459E-4
0.004302798597593136
0.0014700647721304187
2.0083409793224147E-4
0.028551234967514504
0.008532077513661139
0.0046503274244375096
0.0016166747120550699
0.004352774638254467
3.924351772969059E-4
2.8091747484286847E-4
0.002102429844627942
3.0464964104393375E-4
3.188605572937456E-4
0.017758960785010824
0.012743579663117593
3.247621763191298E-4
3.622064280429252E-4
2.4923177529065957E-4
4.206685708329558E-4
0.02349676275315336
0.030012754075846245
0.022884121850851712
0.009254427337826514
0.017646300622074274
0.014012454569921205
0.006517465424489146
0.004048387772276067
0.005841608418280172
0.001392833089854156
1.846906431554816E-4
0.003929235963129131
0.0015129541662505207
1.4276037418256966E-4
0.028456914803437955
0.008462149828345105
0.004932042576451793
0.001953736329904215
0.004632774098657473
0.0020799017918112397
0.0178877804756246
0.013626091006383933
0.0021506775875185795
2.549120466462703E-4
4.576090391708445E-4
0.002187897409752733
0.022869750721678146
0.029361126477646434
0.022123163226549617
0.011583589813599799
0.01741793806678675
0.009553147603119759
0.006005184619071356
0.0038518162609319172
0.005622576316167201
0.0015372016908905143
7.124117683744885E-5
0.004003736242180423
0.0012815351835059816
2.719950879045572E-4
0.02816510231830401
0.008906677610627939
0.005462993586316282
0.005110482877091227
0.018082477950198652
0.01325596201784344
0.006047226520806184
4.853030883356511E-4
4.3022011235714625E-4
0.002191119132228424
0.004749302891521341
3.033934804507386E-4
4.4031873694860434E-4
0.022333347556448307
0.028015474764909367
0.021069390193818354
0.0014484402786359037
4.8295535588133257E-4
0.0011004290852239555
6.167842787438458E-4
0.0146226372628995
0.012463416431556879
0.008684665177388853
0.00585870868172112
0.004238287977015088
0.005676825341961242
0.004205398044466974
0.026989901671426553
0.009931705514398146
0.0164146271573406
0.010109953307169375
0.008298375243372146
0.0021352711275599997
0.0050808019500665205
3.20222963726784E-4
3.99242140460373E-4
0.0024672443008704743
2.2831699072444617E-4
3.943466194048644E-4
0.020591318171114825
0.027890925666122283
0.020114887323481476
0.0011457171390248518
7.800318220572318E-4
0.004013179318136522
0.003750046941540588
0.016074157162441306
0.012248091866348341
0.00857825520160549
0.006410917949916078
0.005986247000130645
7.008261661434399E-4
9.579750840798568E-4
0.02666686305709425
0.015158383218111941
0.012125033958038267
0.010249217667874136
0.005336797513053353
0.0021838651633154637
0.004420686224646525
6.093049728058832E-4
2.847144007517993E-4
0.002220199588409516
0.0214884883439419
0.028315168275931033
0.021186652996972134
0.003786789407710174
0.0060491497863994345
0.005412904690644285
0.015255963806653144
0.011013398002903636
0.009836811195953516
8.682486615789065E-4
0.0012063682673403688
0.003791952819645262
7.246592099515379E-4
0.0013996389887662806
0.027294511325238583
0.015938380303801816
0.012817697711095269
0.008412205185765957
0.005085942054432777
5.372465922833369E-4
1.9860215270217922E-4
0.0020464773311916237
0.004601238219813795
4.3464418408711733E-4
1.6269271413352283E-4
0.021502314311020693
0.027343017472286225
0.020168067949801177
0.0061337364257320545
0.008933542632207738
0.013938313038960246
0.01186128967640533
7.98078860071239E-4
0.0016365460097319772
4.485558692510838E-4
0.0018229045846156924
0.0038111704421762414
0.005745340029978081
0.0036958792597287346
0.027204676492365087
0.016808962303436096
0.012478976621924659
0.009108989812166735
0.002028072633496383
0.004755320351829858
4.884884723963841E-4
9.779297104600608E-5
0.0020627242943831586
4.116424744238156E-4
8.820695434831393E-5
0.02103918636813334
0.02721930932141652
0.02031860289407557
3.976955100054372E-4
0.0020051545037024017
6.284144991456291E-4
0.0024415656212387333
0.00851893852282478
0.011768977148206747
0.015703306756796542
0.003560333133123334
0.0036529381468326312
0.006753636673715293
0.005905761971765488
0.02769015586700094
0.01512091082968783
0.012369251915388287
0.008271509269686282
0.004711321113623163
0.0018002453696270304
0.004297432826770741
6.601556232588439E-4
4.0189848408470306E-5
0.0022446321152930636
6.364760826859878E-4
5.2493081165697746E-5
0.012128960691817903
0.021691961016754035
0.02875903751185591
0.021223441850534607
0.0022612722180554608
0.0024056452537868354
0.0038010333393407414
0.0038938311628220145
0.011106789913094767
0.015918288221666715
0.005977687190808594
0.0055908806183291035
0.009874509914053317
0.002226630854023835
0.0021948528025898632
0.02755856394584656
0.017530881882485857
0.007885052586117408
0.00465355272095764
0.002168433717526501
0.00457299308142801
6.147141638894846E-4
7.595428783247939E-5
0.0017891383296530434
7.140166855736505E-4
1.3036749371286973E-4
0.012818528049167792
0.022994884597065193
0.029311566235861414
0.020996279343660926
0.003969619872867833
0.006068272620279911
0.005701485564231383
0.01497720659212674
0.009779761220990049
0.01368275922336129
9.305238799274131E-4
0.002274896895319206
0.004620454196200742
0.027814751102781973
0.01801406296473917
0.008094752432901918
0.004772798504088036
0.002154376520825526
0.0043038406141157875
6.865570011826658E-4
1.9904217917186403E-4
0.002271630852035499
7.029146765125967E-4
2.8023586883770804E-4
0.012850742990303482
0.02316144990385215
0.029479181293847936
4.453542109378737E-4
0.002520736780735187
0.021483466679056665
0.006919319744236014
0.009374992345496573
0.017637085733204643
0.014464270832380626
0.0046373635016339265
0.006885070149174668
0.028475041193417667
0.017970288794303766
0.007812129913555114
0.004792552237035393
0.002319319047795187
0.004591652577203346
8.521134970084116E-4
3.5227455361488416E-4
0.002108659289521957
0.012854235685235386
8.496345377582071E-4
3.9715426666570984E-4
0.02372304847086854
0.030170737378690114
2.994427055286872E-4
0.0026983470339505536
0.004939973620556604
4.927657926970624E-4
0.002576008668272312
0.022030975345619958
0.010265836192884703
0.013579513285402507
0.017563120736875857
0.008464616185166694
0.028552913672275772
0.018024867961841773
0.007975568138110777
0.005140540297893549
0.002191956359804234
0.0049598002470500075
0.013020966974820544
9.787287803953144E-4
4.2301825360286716E-4
0.0024139926398336633
0.001025493684892616
4.501205519846366E-4
0.02374171344388085
0.030180786517666824
2.7203134196724537E-4
0.00252557036250582
4.599129185884105E-4
0.0023613526774385225
0.005019550199490747
0.007794950600177102
0.0048360174323657315
0.021474963008206616
0.01456100115150387
0.017842543822050274
0.014193959162952885
0.027831452883543748
0.018273318867756124
0.008535714699195314
0.005572354075784742
0.013463162927704964
0.0027905400265036593
0.005391913352988609
0.0010154526958097822
4.532883949074063E-4
0.00297588136322377
0.02363730102827469
0.02953691714986983
4.912751969194418E-4
0.0022000067235999053
9.144871339606771E-4
0.0021414510886898683
0.0047390381157088384
0.004545336555613947
0.00901481972452031
0.007889962608653968
0.020522340895363197
0.01789352624693342
0.016248725597373063
0.027425848688336526
0.01691240673226313
0.0099026467555996
0.006367736476530955
0.01347639059445934
0.0012980554765220922
5.155316930064151E-4
0.003138111953606799
0.006012669132667605
0.023154031149218393
0.02887111937471945
0.0010430565987052402
0.002005074547433085
0.004223696116092212
0.004055702134405834
0.007925518619305974
0.007156792824403767
0.015539643782626804
0.01966006901012043
0.017838133277861837
0.026299342297688332
0.0169089617177974
0.010288736392724644
0.0015216730723042228
6.486875076175873E-4
0.003459731125222539
0.006806646052981479
0.022355773879917246
0.02786641407621485
0.0010615747466537122
0.001629359433492351
0.0037051608816411137
0.008389202649024331
0.008891319249564869
0.014641195579217727
0.018178780564712043
0.01868846830987858
0.01701378408514731
0.02480857439990027
0.013897258183762667
0.01782855337642549
0.010404906156962343
0.001936088035933701
8.657374790365703E-4
0.0038950564098590005
0.006720518477835501
0.021585111547697742
0.026655777282935392
4.2209501794261613E-4
0.001268714867653756
0.0037952101485941732
1.2732508012944154E-4
0.0013262636707891326
0.010195066341915708
0.015628307717535272
0.018598270487052943
0.018534242371887347
0.015495572538589698
0.02499871220730461
0.014355116767557364
0.016817515539083113
0.002405818779117178
0.0012776458137232053
0.010260407014654688
0.004430440314434958
0.006714311836266887
0.01862080631437454
0.021908474984835988
0.02552779107105514
0.025796583139530347
9.29061734304477E-4
0.0012376326261269285
0.004632272118183452
0.011373802132912742
0.005554653526272955
0.01637880816175367
0.01851109445756474
0.013093152582717107
0.017907942451568726
0.02451731522153131
0.013656113642939333
0.015338673710664136
0.016750094864296097
0.0031770827587747417
0.0018929084751118275
0.004936305101828125
0.010138180300299377
0.007328566557749495
0.01866881316226095
0.016507985747156936
0.02078263400730344
0.02631591295447184
0.030741643651200138
0.023839179364270203
0.0210670357078227
0.02432881245253065
0.0017831807410801927
9.974641446785508E-4
0.0067865290002718575
0.015062928969786504
0.014456029591268748
0.017951200912589057
0.0101864332193381
0.015333565557365777
0.0248801379768766
0.029224556772236877
0.026595889383707928
0.013150839318378694
0.014682229122112502
0.0042264013955933995
0.0027521626980066814
0.005604281568855544
0.007431815459403176
0.010229366335227407
0.015140700405057593
0.01688664287560636
0.015604527776164695
0.017407609303159877
0.020187929732710882
0.01812078760193594
0.022929461625968265
0.019375852437711814
0.0158995680602816
0.00412461790526638
3.602979196252771E-4
0.009256742344854985
0.015272190019881409
0.018104167997438813
0.01448137845619096
0.006595231668042101
0.013332633583252805
0.023384649699840946
0.03553713603325345
0.0309175798177039
0.02709039198453179
0.02462110955396887
0.012692755049550699
0.01402719313473616
0.005075524949228209
0.0038197841577816615
0.006512469784480056
0.008258356496801407
0.010590023155534508
0.015177171412371928
0.014597806959929878
0.014859811050530565
0.01459420326002753
0.01443865248959117
0.01497383084228054
0.012200450345801294
0.012034166750415102
0.02017392732595027
0.015272433019669828
0.006558722596517893
8.149069808221085E-4
0.01169334633767055
0.015833935266786142
0.018852874538354467
0.015792886561143447
0.010041204448194353
0.003737296686496584
0.009390566246392144
0.026762021008697536
0.03438519550599606
0.030916185863128356
0.02748630930100119
0.024171932283578054
0.006106440126370279
0.0051580657425286955
0.013187504156203487
0.00751694450302571
0.00949906578336522
0.011404746571366205
0.015199036283112635
0.014731650608574292
0.014697024933715558
0.015147716022518345
0.013052519355113886
0.013840022473295428
0.010549442059088573
0.009221565587077558
0.010902029917011198
0.011302596189616574
0.008332718609641252
0.015568084851830458
0.008251702047649627
0.002538435595240819
0.01352183031842633
0.019144059569140347
0.017402883752227
0.008703149675380913
0.028910906679236435
0.0010805893874573924
0.010557966072437865
0.03920125202370034
0.03131695614677361
0.03861955562018391
0.03642239709468157
0.03343055681563879
0.03507042092889644
0.0310354994559574
0.007577334649459102
0.0065852458829161
0.008891437398013983
0.014144334063095124
0.010607394545957272
0.012771069416993323
0.015856932257559506
0.015923724732280042
0.01646020206705334
0.01452308059036969
0.011722694039364509
0.006781113012155604
0.008096432627274221
0.005896822172432741
0.011040853648095683
0.004717534052081183
0.015792411677045676
0.01995553457034163
0.01769532385562357
0.00686050232129652
0.015693023387654794
0.003962192997198279
0.002241609564897266
0.030145143522260835
0.016208131646481005
0.039305911267948225
0.03194211115126594
0.03836477701259014
0.03570402377830966
0.035342524999878236
0.036243737359250204
0.03501730570304446
0.034916727936213705
0.033020585681431354
0.009299757424021853
0.008106062388915047
0.010432137558204121
0.012871491581502035
0.015193333222145614
0.015954716413911583
0.014497958382530927
0.015615883285279936
0.017272029200594046
0.01735315396155407
0.01825570656278888
0.01650400398048329
0.013689237110724792
0.01026966686880297
0.005323434744716385
0.013421653238859748
0.007004092411971139
0.016973268153198193
0.021207709754184505
0.017011757316690284
0.008928919551910079
0.003940771934950143
0.001221848165045487
0.008585575056740465
8.335526345970649E-4
0.014016515121157713
0.03260772210755181
0.016518520099037478
0.033891012404860976
0.021346728868106242
0.028382952369841584
0.029435162555410146
0.03098794741235375
0.031935846448920786
0.028491064822602084
0.011976313316104404
0.010860156230909747
0.009602659829688836
0.013896183419533926
0.016824269014602666
0.017544319744617207
0.018129014505812047
0.019933454968123543
0.01918801784540981
0.019903802430590086
0.0203403887021835
0.019253528141998138
0.016719693099953335
0.01282330023658862
0.014126180779651725
0.009122256643948222
0.018103969884719243
0.022450391157292457
0.01927830365636055
0.00951905043046481
0.004935882282151304
0.011010768396530797
0.010588385799234705
0.0035842899960423394
0.004751079411083946
0.014566718181611165
0.0055203318183666234
0.019036813564314612
0.008437775954889893
0.015347832617324473
0.015576835547198884
0.01546397876481235
0.015607442998422637
0.013773183501414571
0.012317470864368157
0.010943678538243653
0.019799761118240954
0.01883166032167578
0.020250931073483795
0.02068913680088252
0.02171172162064201
0.022765999475191215
0.021890436941881673
0.023554410777484585
0.022642903146850964
0.019516960686401078
0.015981442690679543
0.01073950459264635
0.018790266990291935
0.023286366138794454
0.02085628419772799
0.013037952097392629
0.003506988941977343
0.00911284036410845
0.009515721294231961
0.004827054970268031
0.009144581700714213
0.004179140672630389
0.003815069283918003
0.004431215216787669
0.004700906035988405
0.003015592132559935
0.0020254619378204937
0.01687192462986119
0.011984977790963493
0.01866639847954821
0.01387517826344743
0.012090486038302074
0.015256751370145738
0.015248437195291642
0.012962337165516934
0.022401063492476336
0.022805892991329558
0.023208368790862775
0.022837493489923557
0.024707730618118328
0.02548519190353597
0.025652322071462303
0.0250813343079079
0.026745095043787238
0.02393688373556308
0.01994284734991072
0.024095167221277983
0.022250285174759753
0.015003753857604413
0.00700391569289581
0.004199684943111288
0.0015075010177064735
0.007859321595806582
0.0079659131977607
0.0070342150141916426
0.005438011020828282
0.006634326649496641
0.00489474477215573
0.00455438102035186
0.0050264638674516375
0.003424762285065988
0.017036693810364382
0.012875179899626365
0.019474880571110468
0.017130386725036566
0.013395772214862151
0.017105787634279637
0.013589653448601625
0.016728132371946636
0.013465456105673342
0.015808273735162675
0.020001078479314784
0.01714107976216839
0.01823744437682172
0.023581173432296213
0.0245161425256724
0.02622392807701247
0.026744636734474355
0.027463389284520637
0.02805289499064158
0.029001749436384425
0.026876373356950787
0.02445283921897483
0.0235430283418242
0.016499071810164353
0.008635096962303376
0.0017645592967845873
0.0030219408504488887
0.006316098708273275
0.005510018390957539
0.005232116296799637
0.004526855448396831
0.00401730891654944
0.0046475706989585345
0.004729163753791558
0.019519618664915958
0.02459275945203622
0.019530779501481497
0.019272672488801903
0.018400680977212494
0.022610237622952677
0.022534388339327336
0.025998172651888578
0.026963778341918678
0.02842230814799748
0.029270453439814104
0.02991095481716283
0.029721079347753233
0.028214814126455375
0.02384039898877668
0.012349825928646104
0.002894150672722437
0.005247440595329651
0.002222953254882748
0.004042731612280129
0.004792355922446738
0.004132852772628544
0.0030096680380582125
0.00275788303099067
0.0029891226565369328
0.024279448481527823
0.025245584433416984
0.023676298826163383
0.022829435873013726
0.025663806735084293
0.025916355392510314
0.027064432649951852
0.028040335838347908
0.02896136180846409
0.029522800473914857
0.029478905828354808
0.02796686233388759
0.014936530019774172
0.005799490274234743
0.003028515871018594
0.003882372620163012
0.004348848411616122
0.004230457662214132
0.003375931631383098
0.0016430955175483228
0.018303001332250206
0.02581486924167972
0.022756946120054956
0.026257106514563037
0.026080348701819446
0.026593540746970293
0.027108026113481374
0.027450807923750997
0.02787925836938811
0.027814152392808607
0.02601173761158673
0.009833894493240444
0.005854475932862646
0.0029741841394931687
0.003972680157079794
0.004639341594980913
0.00472105750813039
0.004240068239968809
0.014492462786756392
0.02160173513499133
0.02351394630096507
0.024110867164419136
0.024437776998925378
0.024518971140291865
0.02429041938014798
0.02219351595519112
0.00535291603717489
0.0021302867338122903
0.0030299191748396517
0.003662361463057401
0.003864054788304297
0.00800979197128335
0.014463423115062773
0.012219219077271894
0.016088674872778378
0.01718251637399923
0.015473428435964954
8.525937816694619E-4
0.001600230054078436
0.001583848667326244
0.0023567295696857037
0.006608837734101876
0.005978849510718729
0.005677279224427133
0.0012488010120466177
3.8978630843339903E-4
2.394377907693593E-4
2.2056836016877337E-4
0
0
2.0520231162352031E-4
0
2.1854353794729334E-4
0
1.9761166141846973E-4
0
1.476323069811981E-4
0
2.1254814984185695E-4
0
2.164312919244616E-4
0
8.573272773250804E-5
0
3.929154045198706E-5
0
1.7325623878571307E-4
0
1.3115311870849134E-4
0
3.428906510367921E-5
0
4.3781413918957974E-5
0
8.003408454100988E-5
0
8.580854999950962E-5
0
8.687610888160835E-5
0
6.40265676234133E-5
0
4.650535136283884E-5
0
6.046424564727023E-5
0
3.1926616715418194E-5
0
9.480137958817737E-6
0
2.048013252831769E-5
0
1.0645504675552226E-5
0
4.585698960953266E-5
0
8.497004944575052E-5
0
1.4664965731739924E-4
0
7.711308425538818E-5
0
1.2177721894437508E-4
0
2.0422274484357953E-4
0
2.5082365787093937E-4
0
1.828383976682867E-4
0
1.8908952381836773E-4
0
3.045638585590662E-4
0
3.361019275416475E-4
0
3.598389480411201E-4
0
3.9940800510215554E-4
0
2.00893846892014E-4
0
2.2904613445438177E-4
0
4.3991283539674135E-4
0
2.973818732897003E-4
0
4.1349813964414053E-4
0
4.890037849068907E-4
0
4.8125539674740347E-4
0
6.108258366210711E-4
0
7.557027541566263E-4
0
4.873896995162277E-4
0
4.7514242901324947E-4
0
8.385435551676591E-4
0
9.168638053064985E-4
0
4.72236046602934E-4
0
0.0010325695864016368
0
0.0011625831000556684
0
4.2097155353642955E-4
0
3.30762843040639E-4
0
0.0012632298730769118
0
0.0013524023709657344
0
3.058916037439615E-4
0
2.5169924229572014E-4
0
0.0013619658545158996
0
0.00133351080056865
0
2.366542296825543E-4
0
2.0369620129686688E-4
0
0.001286834300651048
0
0.001280218418153707
0
1.3422465908232575E-4
0
1.1115597006342785E-4
0
0.0013384925164988712
0
7.737658992956059E-5
0
1.7339403489221765E-5
0
0.0016495019263695076
0
4.3844877577879055E-5
0
1.085252878516932E-4
0
0.0019437442197902997
0
0.0019318485600405798
0
1.5873047135480688E-4
0
1.8055497758338152E-4
0
0.001661778462802876
0
0.0013759580484613227
0
2.209268104608479E-4
0
0.0012227516041750373
0
0.0011764325933907181
0
2.261490997545703E-4
0
0.001218594729770463
0
2.458586399495855E-4
0
0.0010907355913146995
0
3.2644342240587324E-4
0
8.354661666069126E-4
0
8.190664035512528E-4
0
4.3732175042954084E-4
0
0.0010398997065060723
0
6.48070158609095E-4
0
0.0011060057447392043
0
0.001030006869401141
0
9.646354211156476E-4
0
0.0016034421725510816
0
9.764300145173386E-4
0
0.0023821385646746727
0
8.976362743991886E-4
0
0.0033509818162888168
0
4.811609479171069E-4
0
0.004441926256946261
0
3.930322210050417E-4
0
0.005567605134153236
0
0.0011882993419201318
0
0.0066437872984017165
0
0
0.013430025801524154
0
0.02140310063331137
0.002639833356255691
0
0
0.02535990879503783
0.004299813976968755
0
0.007509564412694114
0
0.00809077786470963
0
0
0.004035201047958186
0
0.02420658282335917
0.005543348598756346
0
0.006598684235877072
0
0.007433759127183679
0
0.008019372584706507
0
0.008342130589850161
0
0.008360222672052204
0
0
0.0043603997568227235
0
0.014921792989198589
0
0.011315620829150556
0
8.74520398776346E-4
0
0.016438959885954167
0
0.0028991010523093373
0
0.01958530400454916
0
0.0017432556886155717
0
0.020565228842912005
0
0.002656197699944177
0
0.02016029779677365
0
0.0019877983832111176
0
0.018183449660890586
0
0.0011845914072425086
0
0.01485647327612376
0
0.003077056201054142
0
0.010001099972444713
0
0.00212473237858574
0
0.0036568702767087336
0
5.90456690195801E-4
0
6.13438720493625E-4
0
7.456188151851198E-4
0
7.823456279751663E-4
0.04793076471827711
0.04375999561219558
0.043295174568819095
0.04842949095595532
0.04418515676206616
0.04804808195650261
0.0432320077889322
0.04905212635532378
0.04412167860814959
0.08146051046327091
0.081530573059893
0.07958037440770374
0.0772825207813961
0.047962192601867244
0.04301376295358208
0.049367901338554177
0.04394463029155529
0.049427691112461425
0.0427186608527026
0.04855899348639175
0.043692443193886425
0.04850176453272637
0.04207454946056454
0.04846445290531671
0.04330919371723849
0.04808481584381719
0.04143870888603919
0.0484687958724366
0.042821600019328894
0.040937060111620155
0.047785982487688915
0.04799860383237359
0.04206994343839488
0.04067556452406121
0.047228960922438695
0.04800481740093957
0.04133423960869044
0.04072163160312461
0.046760625857964276
0.047468060450879056
0.04092256553568433
0.08158759469153648
0.07726934830016256
0.08114148013733255
0.07939980096838768
0.04092021057647582
0.04688433433967442
0.08136968089418296
0.08186042972581006
0.0798218176388301
0.07873331102199092
0.04697284483373224
0.04145074393887538
0.046406406618144734
0.0413951835358581
0.04814966424041837
0.04291083493609549
0.042046317645096094
0.04771016319548599
0.04801860530106184
0.04468185281724533
0.047449684879607094
0.042443852398162264
0.04983976318176135
0.04577007205341691
0.04659887878530446
0.04212220858703631
0.04995181638581398
0.04623249708250589
0.045568601275947015
0.04139346164053516
0.050393039783943654
0.045968667914542384
0.010379266301799549
1.01689116315116E-4
0.010389331857376765
0.01176475558914618
0.010377704643891438
0.010418203600837096
0.01146195862527172
0.010377376804895026
0.011689364573369294
0.010162539210822375
0.04499245317285107
0.0410878383181994
0.05083837084721921
0.04493431017614957
0.010377278839466222
0.011225370669626632
0.010397488438649035
0.0452754295648995
0.0409859931621039
0.05027254058294639
0.04355463012740022
0.046450359243420294
0.041003652831605834
0.048996441713644756
0.04227668826052145
0.04669858007578535
0.04099175488661345
0.04852634114244197
0.041487169125293315
0.04130554787496782
0.04762513492530199
0.048103072946887974
0.041028636375271335
0.04189657214596328
0.04877856189796761
0.047948932349399405
0.04110478514648761
0.0425016224844098
0.04932579963274299
0.047827784800103086
0.041599332661263116
0.04306476196733052
0.04922157437380256
0.04708259634794295
0.04225193889147191
0.04897900310842395
0.04365662698060713
0.04752665050706254
0.042923870406822585
0.050009533270549224
0.044482929520708016
0.04878488678385857
0.043227174511752474
0.04524078668521746
0.051797841289557785
0.048567120142820885
0.043334763654827864
0.04986631747095577
0.04478151837190398
0.04916645914273887
0.04362869586478656
0.050790930423289964
0.04426540521721682
0.04923371874778142
0.08147142674611943
0.08153111751894984
0.07963524314934133
0.07793260605295976
0.05704425379403708
0.053217284465670756
0.05794883338354967
0.055007138516932355
0.05227118026408533