<?xml version="1.0" encoding="UTF-8"?>
<VTKFile type="UnstructuredGrid" version="0.1" byte_order="LittleEndian">
<UnstructuredGrid>
<Piece NumberOfPoints="2528" NumberOfCells="4800">
<PointData>
<DataArray type="Float64" Name="Color" Format="ascii">
0.03475160491399479
0.038827758106897356
0.03834101475773276
0.03450072079076715
0.03836650687828561
0.03438670584611931
0.039351703271147793
0.03415499178772088
0.03888830473582355
0.03485120029338543
0.03986356239598967
0.034570302708961616
0.03973138497879697
0.03443047922590845
0.039885516845687544
0.035021778345890146
0.04055324638887488
0.034385138064976443
0.03945207262514006
0.03504940906725625
0.04135735042896377
0.03431602200806588
0.03901101080060073
0.03479436780183926
0.04196938156709277
0.034131234905209605
0.03870223655052458
0.035713562389057256
0.04232832921750373
0.033366683405331894
0.038488402825862605
0.03577877970365929
0.04258749868447182
0.033432799071188714
0.038621200110568105
0.03562416260869985
0.04290582488516461
0.03346270726655053
0.039026630173066984
0.035888032044095124
0.043204046781974176
0.03350469963410422
0.039697512691012536
0.0360682052550439
0.04340529152124709
0.033458062341072896
0.04057616238536368
0.03596617396930879
0.04326757707454069
0.03359397397134067
0.04142617679351909
0.03530921210126329
0.042951409849225276
0.033647731533495824
0.042396742093937546
0.04254186850348584
0.03507113411896958
0.03428476671607444
0.04347439498777517
0.04219453089847814
0.03587959003575034
0.036286012841284354
0.044676271554638415
0.035773158642175285
0.041849979888537864
0.03664452650490035
0.04562441734199014
0.0360771896378505
0.0416420327128943
0.037349894123134324
0.04623561035470871
0.03652295487272932
0.04154623647185273
0.03712296777463941
0.046021815459413216
0.03604893216536955
0.041547320960125304
0.03531522644441704
0.04500513883455683
0.036111621201662454
0.04160286872316923
0.03362995291495808
0.04344642563912896
0.035589536809430215
0.041479375154896074
0.034462944720201345
0.04151163730964457
0.041075852209868605
0.034394174322112094
0.03391152913633921
0.03986157160933612
0.040865561059936314
0.03345810786126941
0.03937878570529759
0.03304087146277084
0.04097095077092346
0.03282831860753916
0.03314552211463856
0.04013594165809919
0.042496158096140414
0.03537462027077994
0.03514789254966972
0.04170391872824943
0.036671965330718585
0.04301157660735484
0.039174041453803925
0.04428801177444754
0.038043221826385705
0.04399338109005255
0.04465620675173899
0.03940147400175809
0.039130707070571986
0.001192703267517251
2.4247858000404655E-4
2.927807163700215E-4
0.0011976901478449814
3.241823034920086E-4
0.0011301708071897723
3.770844456155169E-4
8.78732728321125E-4
1.7861903462395461E-4
0.0030485837185638513
0.0029327312542389533
9.71425672495123E-4
1.1248461678531449E-4
0.0013015072938403263
4.05823275569632E-4
0.0012902356466830418
4.8140032802049764E-4
0.002884043657148682
0.002852166734159271
0.0056032900385190095
0.00274353969060293
0.006148745372029723
0.004895838205977567
8.676743860938477E-4
9.43087707090942E-5
0.002287212138721163
6.176454219188546E-4
3.1652719057316715E-5
0.0015271029490777526
5.700688935799281E-4
0.003075681972639937
0.0035100241832426485
0.00554174193355066
0.005302107092846967
0.008834005050796137
0.0016063551916857017
7.526236045235028E-4
0.004726385993281928
0.010748305126824089
0.007706337169623464
0.002495926015578773
0.004663184298734228
6.206285696174173E-4
1.1164056138644477E-5
0.002514853727976073
5.159883557536942E-4
8.383988722302496E-5
0.0033719499390656303
0.005547962294000736
0.005331303835588554
0.012740156159113466
0.01589716511114349
0.008412823719852634
0.011518956640133466
0.001667834594986454
8.623740076925044E-4
0.003767497299476259
0.0018073105502669975
9.232235352702702E-4
0.02860964660058817
0.02922341997372985
0.020672477327089416
6.059986167855357E-4
1.0971704553050496E-4
0.007954601634555082
0.01555033252402912
0.011559883802535755
0.005858162694089732
0.002376117456788857
0.005324516352488938
0.002363702153876556
0.021021117787565147
0.027561270046272488
0.021694789782617293
0.005736327504823884
0.008540434398499825
0.016322794366992046
0.012235778231549753
0.0022406179805563027
8.55970779494852E-4
0.00231999980679929
7.71946539174225E-4
0.004175034853294451
0.005627763209131397
0.004342267408063766
0.002430984177583329
6.865029170766927E-4
0.029928510234091005
4.1979010957543154E-4
1.2257006527870422E-4
0.002036744870113683
3.863249531145267E-4
1.9908077529915812E-4
0.010668256280211343
0.016025536372583016
0.00882471525289748
0.005929935218661426
0.0051813293540613
0.009814899448131466
0.0207830478066981
0.027734137271331758
0.022034951887596757
0.0025373985517562502
7.802383761936702E-4
0.00848528855480478
0.012275084604681581
0.01725237509901482
0.00436900938408944
0.00461757571375205
0.006679999771884438
0.006104428259267091
0.00476794229726702
0.030399318361233264
0.0019841733473894628
0.005497460001347464
3.9902222656410235E-4
1.5389313518412987E-4
0.002030720025790383
4.5022540537868354E-4
1.975355060937133E-4
0.01458638519487371
0.008216908119070955
0.01268625528925465
0.020927639844575376
0.027886027150595436
0.02268733929653983
0.002839183109224054
8.205494055885402E-4
0.005177128657860865
0.010887282267433103
0.016441813929269137
0.0062946967236094655
0.006091924679478184
0.009061122895934871
0.006578305517358698
0.0030226088084857124
9.085876207174215E-4
0.030497746525972137
0.005752410782819752
0.007872145275744051
0.0019380958957637363
0.005133316694636623
3.737898212269357E-4
1.9170506384319334E-4
0.0019890415542339157
2.8624098387071466E-4
1.8939600809297517E-4
0.01700610273600728
0.01195548686724694
0.02208254656681018
0.028276839947913832
0.02134601786713911
0.005484919813428301
0.006567170104216214
0.014581447720325392
0.008462971250380985
0.012192908068908942
0.008560971226556203
0.0031387603417540985
9.583914611312614E-4
0.005622880506302544
0.0033208623221567504
0.0011008909006866353
0.029903500141962882
0.008677669958213256
0.005261921176615016
0.0016287443368545595
0.004508354361587561
2.722004081531797E-4
1.884941190463996E-4
0.0014121995123028304
1.3990133243822764E-4
2.2900528656472825E-4
0.0161359400487651
0.012713342011931108
0.02247914728369617
0.028782235356540675
0.021964061100059232
0.007531082762229141
0.01647289544361047
0.011960554120561684
0.0115688486059482
0.005760188013821888
0.006845812678110531
0.0033752439720206727
0.0012892238451625486
0.005614645448758588
0.0032041973560165264
0.0014264009641174718
0.029904155416127228
0.007716342625952304
0.004659741025621114
0.0013869331818258945
0.00442901679320123
9.616876778796692E-5
2.610666128826667E-4
0.0018877633304901964
5.5899085995362464E-5
2.7367606054575584E-4
0.017807565248756273
0.012500433715600444
6.52490651925581E-5
2.883410800128609E-4
8.45156605402678E-5
2.9832305386479345E-4
0.023661389788641993
0.02950112309722631
0.02321165912265838
0.009643701064154712
0.017239853990913476
0.013880752172646074
0.007543160854017149
0.0054614932268758215
0.007147601461015232
0.0031208082531020754
0.0014430554739072803
0.0053607807849353935
0.0032082017710355136
0.0013940742225076715
0.029612053720626922
0.007815810853836883
0.004957107849739572
0.0018513484441197159
0.0047568292689471135
0.002006986779279622
0.018304332291500316
0.01363194369540791
0.0023084187010002726
1.263000575485169E-4
2.7317959094127304E-4
0.002308924511796029
0.023640838129824066
0.029417318652167426
0.022758777937080723
0.011752801565953446
0.01761661690594413
0.00977654379268078
0.0073041523243457885
0.005231156084013668
0.006971654517366699
0.00315067961345796
0.0013169819140397888
0.005306611303619501
0.0029650078842732124
0.0012375264010499234
0.029183077184212824
0.008488148112165216
0.0055759849194249
0.005251583933116438
0.01887718336975976
0.013392116168029964
0.006075544942636845
4.110920532062053E-4
1.7279733783549293E-4
0.0021895888611148905
0.004996440062668313
1.9754110413135165E-4
1.8462376454203067E-4
0.023565598607218297
0.0286627158803081
0.02204348597019448
0.003119940944321921
0.0011536611272102912
0.0028675535693184085
0.001032053215490646
0.015325324377975204
0.013049390793322468
0.009340703085663362
0.007172241979960929
0.005448425541046734
0.007086579538648578
0.005366306232542966
0.02800107590247442
0.009663562040272028
0.01727136290449174
0.009987635947087774
0.00814624178963367
0.001960963002717371
0.005377272328534595
1.2154509122735801E-4
2.585335896694241E-4
0.002329020301961696
6.738553196645681E-5
2.8331211741927827E-4
0.021973269755421295
0.02891491580787806
0.021205655658977515
0.002794570679940978
8.051807198514508E-4
0.00505229223677164
0.0048493919256803195
0.017806071064217246
0.013233347511987086
0.009575848205563184
0.007743391456412037
0.007392280999833146
0.002336930386315414
4.8129909429579294E-4
0.02781332326931207
0.016039166843856922
0.012416003958166721
0.010181987257185181
0.005705106235784436
0.0020201041841545002
0.004884519936616493
2.965670383130485E-4
2.434713287978982E-4
0.0019304920579649271
0.02292056969807807
0.029580462524980356
0.022198696923930016
0.004809812003703755
0.0074104416185488695
0.006764111097587048
0.01750191712818477
0.012175702725974603
0.010886799661566748
0.002364710664276786
1.6826743286026783E-4
0.004812000634054063
0.0021920850402888316
3.695653452498274E-4
0.028285807566271515
0.016844816033792037
0.013079529244709471
0.00839710176885016
0.005509602734043894
1.9383240200517907E-4
2.5346263351425915E-4
0.0016936397297383796
0.005032864578153331
6.162070059064104E-5
3.025800850193514E-4
0.022930744153281255
0.02885780900713691
0.021239153741772186
0.007468940895752642
0.010078165951754035
0.01637058402287667
0.013962920571231604
0.001862755231684344
8.644209023129909E-4
0.001255456337216525
0.0013290414627619466
0.004751847059629302
0.006908009599429397
0.0046507787038384055
0.02798950153552768
0.01764562164641925
0.012621668631874038
0.009096712244221478
0.0015945129706329282
0.005114992620305347
3.0815337088675294E-5
3.4431351686775927E-4
0.0015578719218504674
1.1775362825459507E-4
3.871181954709221E-4
0.022335706636546663
0.028671764069089705
0.021346856515895265
8.456979941806618E-4
0.0017640234127677726
6.902905833380754E-4
0.0020617145410200695
0.00978944451423183
0.013766563738113158
0.01717892990048428
0.00441131167279879
0.00412308394812745
0.007898541510640998
0.0070515237387034965
0.027732999000739233
0.0153711052453646
0.012331738313416708
0.008412782010640203
0.004910882713148379
0.0013186878972232172
0.00432989780240668
6.95099838246365E-5
3.7317050025584834E-4
0.0017972883731356313
3.11881850988119E-5
3.9433279504922524E-4
0.012011782533039948
0.022939483128339235
0.029852241808449063
0.021719668879704005
6.23063208429469E-4
0.0022757294401946865
0.0036150592629827856
0.003519081477752635
0.012710235924843433
0.016523094797079998
0.007030497074618276
0.006618838339887845
0.011224678628074998
6.55611326325033E-4
0.002596179916190013
0.026943059969859396
0.017814681209010908
0.008028868659018527
0.004571432626986733
0.0016699577082582519
0.004372721589174546
8.414955657251253E-5
4.336285937398417E-4
0.0012084627595723308
7.684285011646283E-5
4.7816421857091245E-4
0.012619638971412083
0.02391732901339914
0.03019236752089802
0.020648657855138437
0.0036331715798626446
0.006898201188045668
0.006451533544418383
0.014839418913606826
0.010604996160831732
0.013228443314250073
3.8204467660949917E-4
0.0029852589730757265
0.003742669782579151
0.02663870924306765
0.017981400873651868
0.008109768715595662
0.004466961545653722
0.0015022961384884355
0.0038941277144401445
1.6601852414797828E-4
5.069415286606376E-4
0.001589870615129296
2.3462681042991321E-4
5.402425419998221E-4
0.012479953444761084
0.023680917537066696
0.03018429460403067
3.5103710008238005E-4
0.0033914324915124867
0.02049452229564178
0.0076026274378074386
0.009643121309006136
0.01607772128107447
0.012942496073655331
0.0034466250476257
0.006878300131820096
0.02687903480750001
0.017652457366029797
0.007628562255843124
0.004354856793317382
0.0015473224327516315
0.004096680809323996
1.9285611234359215E-4
5.864029866239624E-4
0.0012860029177854907
0.012330343847056028
2.4345059886555243E-4
6.142849328505085E-4
0.02392628776986458
0.030716842749090586
5.074435830875421E-4
0.003654667061453589
0.003574244922068741
0.00122245434867346
0.0036483484515894707
0.02063899519803279
0.009506239828339024
0.01174013058172607
0.01476504438078812
0.008225785768685418
0.026730578109604306
0.017525041667173797
0.007560487940449251
0.004674835441561344
0.0013455456740158313
0.004512801861142449
0.012340572543149228
1.528865187505578E-4
6.356825105448245E-4
0.0016172662586971269
5.5981308351149286E-5
6.465062140231507E-4
0.02367148074409642
0.03066860684569882
0.0013275976203483229
0.0035411261756153117
0.0017020374039687439
0.0034665403729921933
0.003379100686991637
0.0077773952754124215
0.0034232316807048355
0.020156985965557286
0.01171168914940457
0.014135233912833946
0.011632173660900214
0.025274183015792793
0.017696361303781785
0.007885408956315525
0.005163734997496451
0.012687141173404092
0.002178861408956212
0.004949232022476997
5.696960450994904E-5
6.327064600077613E-4
0.002369807607614974
0.023383745933550568
0.030028990370834955
0.0015531020415037054
0.003348378587518048
0.0017075610004816286
0.003182209049134071
0.0033230554673917266
0.003284874208513622
0.008906340251953714
0.007956826075467018
0.019614759122777912
0.01351619774477093
0.013020673798647787
0.024929364036790694
0.016197316602979964
0.009040571883367847
0.005819167034723338
0.012653538051029513
4.3154597245833676E-4
4.943663512124681E-4
0.0026327250580314627
0.005466892787044765
0.022755625276409886
0.029489810057552943
0.0017133843228706765
0.0028621907788996133
0.003086614390895505
0.0031312574083709245
0.008165209129163834
0.00737968660563842
0.01344403524701247
0.018930884316961546
0.013698788439504535
0.023861704599272174
0.01617869872018038
0.00937145045909686
7.797489551432737E-4
2.5827863524151447E-4
0.002923194467423049
0.006179848188234063
0.021878942036320386
0.02854107909623291
0.0014906097885676126
0.0022874511196440102
0.0030912663545455137
0.008568899451327815
0.009020616879774304
0.013367279039839306
0.015487746938449665
0.018376580773929563
0.014865361895246182
0.02230927247807651
0.013056521852398311
0.017092549754585042
0.009606460663608068
0.0013097626229666615
1.2236785412499026E-4
0.0033733806578600234
0.006116679349494394
0.021156118375654655
0.027353524232829718
8.63333321572844E-4
0.0016804095324078575
0.0034811351055150405
3.4983397100635255E-4
0.001398339078086219
0.010195785862046445
0.01475463212879387
0.01687748487664485
0.01879347762945492
0.015049966816232533
0.02184483315301264
0.013517521990711717
0.016018696631681723
0.0018582165275634836
6.087436160062128E-4
0.00952100605398092
0.003924444890650912
0.006170314161687624
0.01795908694163147
0.021844104619949716
0.02627156590663628
0.026789819362677627
7.421626784326569E-4
0.0012231112634888404
0.004704700610322352
0.011190014454796457
0.005624867067436101
0.015869490410089167
0.01795867619095677
0.014443649319148521
0.018409364540844932
0.020208938535007187
0.012810917738926913
0.014509634937847559
0.016024914188523885
0.0026812842744417327
0.0013293627775248934
0.004471875281992528
0.009486598209533055
0.006849362252331319
0.018230640529175928
0.015936049965205423
0.020821269883415008
0.027253716416503156
0.032109014618997324
0.02464712692749163
0.02140850529283951
0.024858337602829073
0.0016636650523621295
8.64422034547544E-4
0.006934545418599658
0.014664327058138138
0.014352531105689853
0.018849096667845868
0.01314539557459389
0.01645001931510417
0.019720069214157292
0.030122076136148045
0.027041996584365173
0.012371517697106508
0.013907697673324452
0.0038078911329850174
0.002270061903844518
0.005175327293514449
0.007070472136540498
0.009644115397261116
0.014550709066127173
0.01653860050117337
0.015200666338206133
0.01730684167965718
0.020667555842618836
0.018280000997025318
0.023040314023236124
0.019481803371541286
0.015534466881963322
0.004093812389249941
1.3830454286557344E-4
0.009565858215658559
0.015563282223965734
0.018859513312395503
0.017195881235142912
0.01013183985352996
0.013376816182705477
0.018758539944839416
0.036507480451172435
0.031642251754473584
0.027277898137302792
0.024177169660563245
0.011984335519404648
0.013323187673301973
0.004746371640775313
0.003419961779502937
0.006129998728709123
0.00795792828293957
0.010061651855973082
0.014762570431303645
0.014011150460189086
0.014714210833583943
0.014489973904176574
0.01433836452734154
0.014790273248001145
0.012320870652865176
0.011260844880847888
0.0193899248814024
0.014131384770102296
0.006522363655911498
0.001102151780862684
0.012339219433544019
0.016433934452549384
0.019874655296041297
0.01835303110236435
0.013435477826145282
0.006735628029667914
0.009437494447346645
0.023870555172615108
0.03510667510474034
0.03126670426876193
0.027020627220992556
0.023760172167798896
0.005874675507323602
0.004859671646881063
0.012547663116262323
0.00717119509566166
0.009211465710502166
0.010929008567757815
0.014887743302369095
0.014209642401579093
0.01417990959961719
0.015258807855617272
0.013216430480096504
0.01408306847470243
0.010240646932899696
0.009464101854626478
0.011319611544360158
0.010236140864946308
0.007929262960248287
0.014530017176185198
0.008491160979753505
0.0030679306649997024
0.014466838860325187
0.019996365173418906
0.01920611616550477
0.011365084624482956
0.02774575914369062
0.002297686538686169
0.010366228707119422
0.03658507261322185
0.030884411715281255
0.03947577787053479
0.037114509846944525
0.033836133286199915
0.03573088326108996
0.03106786247888967
0.007409839475640147
0.006375592525647221
0.008572431297509593
0.013568661677483978
0.010321926398582157
0.012291812603854991
0.015651884873767282
0.015559598395411158
0.016693736133610654
0.014979221839191438
0.01231805765836112
0.006987241654783999
0.008856891168287369
0.004698586407271567
0.011531881776625357
0.005246151985745644
0.016822650313104957
0.02061548225754564
0.01897431943223193
0.008124322548273498
0.016288771880465732
0.0020679178337055415
0.00506858346268834
0.031139520166837274
0.018073718040618053
0.03816587567291252
0.03350033844011302
0.03871618995038978
0.03596047618910364
0.0356536856820741
0.03671029047985386
0.035785522216714605
0.035725918177909655
0.03371772012184763
0.009124410944945746
0.007943317307406111
0.010095037497450625
0.012530873789209812
0.01468598916366318
0.01553097486632019
0.014028325549167468
0.015132227159625745
0.017229760353174004
0.017092716897550455
0.018597753292065044
0.017126609201546825
0.014584097388134336
0.011229244476445731
0.006649255016662124
0.014084163372346288
0.007586383628921204
0.0177979487263641
0.021631474404309372
0.01768879153549805
0.00949910532716222
0.002143667171736439
0.00455569248805321
0.006969579843676949
0.003253477633971284
0.01608294217187881
0.03432045012978149
0.018773473883920828
0.03498629153171861
0.02413856804162496
0.03002109495445529
0.03091891714218691
0.032272030363244227
0.03305009335118036
0.029859269811303938
0.011673767397532751
0.010702573694984377
0.009475593785749175
0.01356974681820578
0.01632460332326705
0.01715935910225812
0.017658682727116588
0.01947675035229225
0.019282523776977197
0.01981841931296541
0.02074381750029009
0.019945728138335467
0.017573795268604194
0.013979993685074311
0.014698943461896595
0.009632738904691575
0.018623724082245694
0.022546192620968717
0.01946400800305903
0.00961234568458698
0.003491385673915901
0.009349239145199752
0.009416051698553822
2.831687418656472E-4
0.005867910056515504
0.016350802686958422
0.006654679577157828
0.021910351857999586
0.009168198532809707
0.018079407447430005
0.018223442611571754
0.01771472763881084
0.0152462128514132
0.01347459011720274
0.012186787901828597
0.010845888929024255
0.019255646516327104
0.018291005535776634
0.019760093006442166
0.020498482414661446
0.021442132838191876
0.02246162440988875
0.022167488745813608
0.023706969936367072
0.023155552643576518
0.020277190727481142
0.016404587942244527
0.011093705425775846
0.019075397681614228
0.023175129898676063
0.020644008364404633
0.012953872292105635
0.0023386714688583936
0.008831020880926964
0.009355946632544179
0.0033004297046212486
0.008521010797837479
0.0032907725798286412
0.004292894580174349
0.004188412228377855
0.005020386339744683
0.0031198386320414238
0.0016714040299060679
0.017156617271782054
0.012212185240534005
0.018210348992748652
0.01376578001336391
0.012022639144324556
0.0149405182140469
0.015162829369703002
0.01291522653885421
0.021894308077659255
0.022276410187753493
0.022754456707915507
0.022447186709344234
0.024775622293417735
0.02544796158683015
0.02550790972489082
0.025380084047004786
0.026861399585988027
0.02430737201067733
0.019979633083272514
0.023798842177064485
0.02180143092045632
0.014619865733637194
0.006556172825467585
0.003968144673380593
4.1551965905713476E-4
0.008010188163859415
0.008131218855789943
0.006623513043400829
0.004946772553067767
0.006665394552529577
0.004797972664797462
0.004767473452694863
0.005248572988792919
0.004073401954916783
0.017231163807514206
0.013014885509176396
0.019475856718278232
0.017256072849490604
0.013474773861874765
0.017158121568665818
0.013620972005099579
0.016714361478124492
0.013463128263167529
0.01577990866738417
0.019565700177567463
0.01680357304049281
0.017931650921384292
0.023180773410831947
0.024127687785985622
0.02590942022606549
0.0264991873759411
0.027262002537082268
0.027983210278861522
0.028773212483002544
0.026832336352538705
0.024107666163952688
0.02300062459833346
0.01599801855798928
0.007992705334697037
0.0017907432130146814
0.0032291867325185157
0.006397745025052629
0.0058219185010364655
0.005276011793722683
0.004714635926503618
0.004223182902460186
0.004951342982264154
0.005477662737255944
0.01946701778866879
0.02423246401319604
0.01940361188805037
0.019090535241195025
0.018173033322040313
0.02231244413066699
0.022183595958098073
0.025603252565725328
0.026555374836252626
0.02794871880774336
0.028774358934036893
0.029424277697485752
0.029311459862794827
0.027830758447452694
0.0232745913162915
0.011778760373676022
0.002656033113091145
0.004657587603748216
0.002624546877179656
0.004263884073391976
0.004801096872983299
0.004076958115883097
0.0032434839810007872
0.002776009270591094
0.003556788649834754
0.023973184084366064
0.024661035871651995
0.023425690023589654
0.022584612439534
0.025247576282389887
0.025494573437263402
0.02657050414648633
0.027443632254295334
0.02831187436160525
0.02885352443842375
0.02885435803226465
0.027330511097744564
0.014435734924379828
0.005089178449960061
0.003075799617798028
0.004033974641481699
0.004407557116952384
0.004181958622976299
0.003247251922090132
0.0014301824697501653
0.017776616043500275
0.02528807170848019
0.02220594588207125
0.02573433536775136
0.025516563174970815
0.026019581515894567
0.026465661023227508
0.02671467081099277
0.027104536362573827
0.027033028541826133
0.02517427974795444
0.009148929906502427
0.005207078668935116
0.0029072640838481907
0.004054002839920892
0.00462434074223336
0.00457289663696445
0.0038131490493876117
0.013808684373645611
0.020978201799056732
0.022903223846686183
0.02342362207480261
0.023686050008349144
0.023694006587941907
0.023395825834968527
0.02118452607312637
0.004623586012017746
0.0019266353031700265
0.0032003941926156934
0.0036902712821306046
0.0036051251038031313
0.007190744151947512
0.013332285142733965
0.011224463478066084
0.014879487011024173
0.01595033474264821
0.014205393064948278
0.0011821411392381727
0.0020703065268221654
0.0019099693288202912
0.0018224452249144556
0.005482372063183556
0.005012527263024302
0.004466551882141388
0.0017579172732180707
9.781443629624067E-4
1.1922356041812562E-4
6.088697203534617E-5
0
0
2.2761316142510053E-5
0
4.3224118599045066E-5
0
1.5991748513256423E-4
0
2.123717459040989E-4
0
1.1693146584677996E-4
0
1.2645556141734825E-4
0
2.7096453259898206E-4
0
3.610926394139951E-4
0
1.8093065202579085E-4
0
2.0090008300888368E-4
0
4.8315028960688584E-4
0
5.639390272408744E-4
0
2.4562744598199927E-4
0
5.684935702942088E-4
0
5.0747487204683E-4
0
4.261731826119329E-4
0
2.8135949164483434E-4
0
2.636962058233723E-4
0
4.0767658836938017E-4
0
3.133587065381946E-4
0
2.8907883478801027E-4
0
4.63122777734591E-4
0
4.813779217779017E-4
0
2.843341338683098E-4
0
2.770699709148838E-4
0
5.179633927244074E-4
0
5.456959936357825E-4
0
2.574566664869531E-4
0
2.449067944741234E-4
0
6.392414582790508E-4
0
7.746996730761657E-4
0
2.495053627624089E-4
0
2.59989884868481E-4
0
2.4778269091582335E-4
0
2.384846274857666E-4
0
8.046355328222538E-4
0
7.468899078720834E-4
0
2.278895854748817E-4
0
6.621099278843682E-4
0
5.783862714163448E-4
0
2.004308787293403E-4
0
1.1211916706721738E-4
0
4.982011293443682E-4
0
4.188974935651499E-4
0
8.299513926733572E-5
0
1.236080316229743E-4
0
2.9419425428854775E-4
0
6.189304075501882E-5
0
1.402145817229266E-4
0
1.9860150998898436E-4
0
4.5956327270381576E-4
0
1.1011919340976307E-4
0
9.992853866724327E-5
0
8.234445462346175E-4
0
0.0011994297413727632
0
1.338625139501762E-4
0
1.6438195871513865E-4
0
0.0015116034134325758
0
0.0017602957716369692
0
2.0060694805785866E-4
0
2.0444117708872934E-4
0
0.0018885266717297761
0
0.002105567998634615
0
2.1144736609348107E-4
0
2.4907506928211447E-4
0
0.0024362576087012273
0
2.883832617469703E-4
0
3.17424160030301E-4
0
0.0027594012876476907
0
3.588219721171807E-4
0
4.0512112267558544E-4
0
0.0030753061198539045
0
0.003104215078942273
0
4.4446474340359535E-4
0
4.845331045925625E-4
0
0.0027655319232653204
0
0.0024526723455131245
0
5.127327237846373E-4
0
0.002254762629363995
0
0.0020876739691367734
0
5.504495604497511E-4
0
0.0019081330171778954
0
5.128992223319581E-4
0
0.0015343632105040991
0
3.78145847222301E-4
0
9.809687116155074E-4
0
7.009011414164334E-4
0
2.3156072738892637E-4
0
7.909132208573816E-4
0
6.260606154527802E-5
0
8.162885963147502E-4
0
5.155813987931925E-4
0
5.750705310849218E-4
0
0.0011702354974632667
0
4.195162898380678E-4
0
0.002007380109381259
0
2.9145139656586817E-4
0
0.0030194263207437948
0
1.6210420609602774E-4
0
0.004168626468792452
0
8.866009968419024E-4
0
0.0053421005766008485
0
0.0016021219537067349
0
0.006437749026547004
0
0
0.012567725817407761
0
0.021087931382301934
0.002986738655408358
0
0
0.025758140162045584
0.004566674524118519
0
0.007309002282381417
0
0.00790180599828261
0
0
0.0028351232342870274
0
0.025267505092176176
0.005698274644184086
0
0.0066349979901734624
0
0.007389818529808123
0
0.007916565346570103
0
0.008180883028105724
0
0.008181082639948547
0
0
0.005663103376324962
0
0.016812611518727583
0
0.01234015461418478
0
0.0018053753649355127
0
0.0170230273703508
0
0.003521036307799127
0
0.019676658386133795
0
0.0023414590989228098
0
0.020243673421328028
0
0.0036402963856119372
0
0.01954437461059314
0
0.0028185172217450676
0
0.017406557984330755
0
5.79953945290478E-4
0
0.013995606262648038
0
0.0024613888117679867
0
0.0090711196975063
0
0.0017292969363971065
0
0.0028383392478724934
0
7.003886281364636E-4
0
9.306022539934007E-4
0
9.93939620932921E-4
0
9.686437391948304E-4
0.04517319921155961
0.041387024559462374
0.04034783403896658
0.04642077552516282
0.04176484012449358
0.04417317775801571
0.039523286710713874
0.04750281090752223
0.041192338983790044
0.08152329984179003
0.08133589840041822
0.07943310590557481
0.07706715847374683
0.04381323975874974
0.03942352469437076
0.048072857282336685
0.0405142392684411
0.04572553676585223
0.03992721476959476
0.047158229572727924
0.03991644641996233
0.04594376096771118
0.040423900662277926
0.04732618162832542
0.03976089733129526
0.04661377965278941
0.04116388560981139
0.04782870979866726
0.040233464580041546
0.04181009902421751
0.04721800343660373
0.04793283467933918
0.04108554513538045
0.0424679135158596
0.04737174986582
0.048927317523293434
0.04198226970332674
0.04338177557354339
0.04744194844528298
0.04928025567272553
0.042748882706647146
0.08138459403122578
0.07837008474114825
0.08180740562489705
0.07975469931850208
0.04437996753648518
0.048017036376311543
0.08164891282457923
0.08094047526448432
0.07938397949103279
0.07707491261370626
0.0492165798694367
0.04330813766025216
0.048063307413113716
0.04563712530713158
0.05004941047113897
0.04352623529203075
0.04686116695615686
0.04967020819745201
0.0483962471687231
0.04344032523271962
0.05021854089236434
0.04771409292178764
0.04797047462015603
0.04341611259799587
0.0503646769506036
0.047779922578190984
0.04722880548285023
0.04402376023801183
0.049836392850037756
0.04722576173145473
0.04828130943827001
0.04462008516418377
0.010377398082614755
1.0224268194991387E-4
0.010413817297289888
0.011636556005509275
0.010376639284304264
0.010391310659763028
0.011507336441949597
0.010378438476299812
0.011819561309805741
0.010264590189286032
0.049205816976258476
0.046258524913610675
0.04984429291688836
0.04461780244301291
0.010376400843674779
0.011323398281944298
0.010414114571126771
0.048883473296262255
0.044562261807141824
0.0502546042223681
0.044323124499431286
0.04919848772356057
0.042713435420051425
0.04977086542271723
0.04387796970673836
0.048464760271934366
0.04134501962033703
0.04981372239411593
0.04340875598741697
0.041543055192888284
0.048666653315192265
0.04960182295424546
0.04279447556532734
0.04253830118728188
0.04943123692106665
0.049395858981683916
0.04233192626279955
0.04392759787782242
0.049929191063284147
0.04913282628973775
0.04209920068622932
0.045151513507446055
0.04984864685630295
0.04804935671917763
0.042130888471023455
0.04959740317259385
0.045812240403796854
0.0481201894569958
0.04235185548970318
0.05013086789586816
0.04582307916363774
0.049028703699253724
0.04235046005342504
0.045233657114956236
0.05103995063682566
0.04820407547681228
0.0422228594694851
0.048239511976528295
0.04335498674346252
0.0477816358964391
0.04202668366161478
0.048446109489629526
0.04235958701235695
0.04687596796961164
0.08153720260593927
0.08131615065469536
0.07959154067708103
0.07771738110143823
0.054134326827804745
0.049821307454604266
0.05459930933771094
0.05240867527541845