/*--------------------------------*- C++ -*----------------------------------*\
  =========                 |
  \\      /  F ield         | OpenFOAM: The Open Source CFD Toolbox
   \\    /   O peration     | Website:  https://openfoam.org
    \\  /    A nd           | Version:  6
     \\/     M anipulation  |
\*---------------------------------------------------------------------------*/
FoamFile
{
    version     2.0;
    format      ascii;
    class       volScalarField;
    location    "0.25";
    object      k;
}
// * * * * * * * * * * * * * * * * * * * * * * * * * * * * * * * * * * * * * //

dimensions      [0 2 -2 0 0 0 0];

internalField   nonuniform List<scalar> 
12225
(
0.000282989
0.000707663
0.000780274
0.000671886
0.000363643
0.000197546
0.000137664
0.000126237
0.000131293
0.000165436
0.000281675
0.000649299
0.00161871
0.00241164
0.00277326
0.0028298
0.00262677
0.00340829
2.56228e-05
8.15349e-05
0.000117347
0.000116256
9.31514e-05
6.35902e-05
5.17588e-05
4.96937e-05
5.08647e-05
5.73939e-05
7.62441e-05
0.000123518
0.000228258
0.000364406
0.00060833
0.00116182
0.00152615
0.00195342
2.03593e-05
1.86448e-05
1.96376e-05
2.06749e-05
2.04583e-05
1.96687e-05
1.94048e-05
1.94742e-05
1.99011e-05
2.11533e-05
2.41774e-05
2.87945e-05
3.6896e-05
5.26745e-05
8.83451e-05
0.000193171
0.000297972
0.000496084
2.10973e-05
2.06704e-05
2.02297e-05
1.99748e-05
1.97683e-05
1.95744e-05
1.93667e-05
1.8945e-05
1.74516e-05
1.60024e-05
1.59204e-05
1.67678e-05
1.85477e-05
2.033e-05
2.38527e-05
3.27068e-05
4.93706e-05
8.77483e-05
2.48772e-05
2.186e-05
2.12827e-05
2.17447e-05
2.21587e-05
2.22015e-05
2.20841e-05
2.23848e-05
2.20357e-05
2.08353e-05
2.09762e-05
2.24264e-05
2.63987e-05
3.56205e-05
4.10005e-05
4.3914e-05
4.65543e-05
5.11448e-05
2.28763e-05
2.10148e-05
2.03585e-05
2.07094e-05
2.22338e-05
2.30132e-05
2.30702e-05
2.31105e-05
2.34274e-05
2.78214e-05
5.96798e-05
0.000119399
0.000139688
0.000140506
0.000131495
9.94875e-05
7.01357e-05
5.41834e-05
2.20927e-05
2.07212e-05
2.04456e-05
2.11455e-05
2.65223e-05
3.60306e-05
3.57389e-05
2.98189e-05
2.90138e-05
3.41613e-05
7.12179e-05
0.00010545
0.000110587
0.00010783
9.3145e-05
7.22762e-05
5.62036e-05
4.47322e-05
2.28517e-05
2.19245e-05
2.27929e-05
2.84246e-05
3.30556e-05
3.38926e-05
3.10058e-05
2.59888e-05
2.51489e-05
2.63705e-05
3.60792e-05
6.70015e-05
8.04728e-05
7.95437e-05
6.72731e-05
5.35271e-05
4.65882e-05
4.17598e-05
2.56895e-05
3.33811e-05
2.94685e-05
2.78674e-05
2.77349e-05
2.54806e-05
2.33807e-05
2.33804e-05
2.59488e-05
4.54021e-05
7.43862e-05
7.77937e-05
7.23157e-05
5.43652e-05
4.12149e-05
3.51985e-05
3.36777e-05
3.39388e-05
2.11022e-05
2.51691e-05
3.0382e-05
3.17976e-05
2.80266e-05
2.40583e-05
2.37152e-05
2.56144e-05
3.64476e-05
4.56806e-05
4.61554e-05
4.2073e-05
3.41127e-05
3.00341e-05
2.76693e-05
2.61743e-05
2.55963e-05
2.5649e-05
2.16885e-05
2.75966e-05
2.74393e-05
2.41232e-05
2.26176e-05
2.35045e-05
3.20111e-05
4.17845e-05
4.27876e-05
3.95409e-05
3.21108e-05
2.75654e-05
2.51529e-05
2.40988e-05
2.37935e-05
2.38301e-05
2.43602e-05
2.49663e-05
2.04704e-05
2.28515e-05
2.33366e-05
2.29347e-05
2.19765e-05
2.17895e-05
2.19723e-05
2.24839e-05
2.26007e-05
2.22419e-05
2.15682e-05
2.13142e-05
2.1311e-05
2.16168e-05
2.3084e-05
2.91731e-05
3.76539e-05
4.08317e-05
2.10263e-05
2.5217e-05
2.52204e-05
2.35864e-05
2.17055e-05
2.11758e-05
2.11075e-05
2.11482e-05
2.12681e-05
2.12561e-05
2.09761e-05
2.07495e-05
2.07159e-05
2.07815e-05
2.12068e-05
2.26932e-05
2.74059e-05
3.45375e-05
2.04312e-05
2.41221e-05
2.5143e-05
2.34983e-05
2.14771e-05
2.0837e-05
2.08566e-05
2.17793e-05
2.61781e-05
2.96215e-05
2.99108e-05
2.8212e-05
2.49868e-05
2.36311e-05
2.33411e-05
2.34514e-05
2.40031e-05
2.57771e-05
2.07538e-05
2.27206e-05
2.29412e-05
2.19934e-05
2.17564e-05
2.16225e-05
2.13155e-05
2.12546e-05
2.13801e-05
2.18766e-05
2.32512e-05
2.78924e-05
3.38686e-05
3.60745e-05
3.6429e-05
3.63477e-05
3.58084e-05
3.34137e-05
2.27178e-05
2.24857e-05
2.15188e-05
2.19637e-05
2.47817e-05
2.59587e-05
2.51547e-05
2.31161e-05
2.25293e-05
2.27546e-05
2.49661e-05
3.59736e-05
4.76506e-05
5.13366e-05
5.14594e-05
4.91349e-05
4.0798e-05
3.37642e-05
2.12428e-05
2.12573e-05
2.06292e-05
2.06439e-05
2.12958e-05
2.19503e-05
2.2111e-05
2.20645e-05
2.1874e-05
2.18616e-05
2.19665e-05
2.24966e-05
2.36784e-05
2.44453e-05
2.47012e-05
2.46622e-05
2.41889e-05
2.37296e-05
2.00458e-05
2.02934e-05
2.19955e-05
2.37828e-05
2.42463e-05
2.38959e-05
2.24662e-05
2.15449e-05
2.11337e-05
2.09857e-05
2.09738e-05
2.09856e-05
2.09679e-05
2.08973e-05
2.08206e-05
2.0797e-05
2.07974e-05
2.08303e-05
2.00793e-05
2.08833e-05
2.1395e-05
2.18324e-05
2.28795e-05
2.50725e-05
2.59516e-05
2.59005e-05
2.51915e-05
2.34782e-05
2.22823e-05
2.16471e-05
2.12623e-05
2.09409e-05
2.07456e-05
2.06623e-05
2.06613e-05
2.071e-05
2.05577e-05
2.0743e-05
2.08121e-05
2.1124e-05
2.29212e-05
2.47884e-05
2.47358e-05
2.35268e-05
2.22421e-05
2.17394e-05
2.16582e-05
2.17326e-05
2.19451e-05
2.23863e-05
2.3724e-05
2.50009e-05
2.56025e-05
2.57386e-05
2.02222e-05
2.1552e-05
2.2214e-05
2.21814e-05
2.13873e-05
2.11239e-05
2.13485e-05
2.28338e-05
2.4428e-05
2.4644e-05
2.43707e-05
2.35797e-05
2.3105e-05
2.29216e-05
2.28725e-05
2.28186e-05
2.2627e-05
2.23001e-05
2.00896e-05
2.14404e-05
2.30427e-05
2.41196e-05
2.37319e-05
2.18229e-05
2.11618e-05
2.111e-05
2.12235e-05
2.15429e-05
2.18343e-05
2.2e-05
2.20015e-05
2.18201e-05
2.14991e-05
2.13114e-05
2.12373e-05
2.12355e-05
2.04502e-05
2.16039e-05
2.21069e-05
2.22546e-05
2.2208e-05
2.18674e-05
2.16476e-05
2.1658e-05
2.19192e-05
2.20698e-05
2.19581e-05
2.14697e-05
2.11361e-05
2.10148e-05
2.09823e-05
2.09978e-05
2.11304e-05
2.1362e-05
2.04083e-05
2.06985e-05
2.11338e-05
2.26713e-05
2.40045e-05
2.45055e-05
2.50522e-05
2.67634e-05
3.07368e-05
3.17521e-05
3.02851e-05
2.65018e-05
2.43467e-05
2.30206e-05
2.21198e-05
2.18289e-05
2.18586e-05
2.22016e-05
2.10952e-05
2.10526e-05
2.11258e-05
2.16927e-05
2.21022e-05
2.27868e-05
2.42401e-05
2.48077e-05
2.47307e-05
2.38589e-05
2.31387e-05
2.30351e-05
2.32384e-05
2.38806e-05
2.41421e-05
2.48497e-05
2.70957e-05
3.54525e-05
2.01378e-05
2.01949e-05
2.03821e-05
2.10138e-05
2.12821e-05
2.12742e-05
2.10483e-05
2.08563e-05
2.08514e-05
2.10197e-05
2.19332e-05
2.38493e-05
2.52141e-05
2.60329e-05
2.64585e-05
2.66497e-05
2.67021e-05
2.67077e-05
2.0155e-05
2.04386e-05
2.04748e-05
2.04643e-05
2.04248e-05
2.02572e-05
1.98298e-05
1.94512e-05
1.92079e-05
1.90732e-05
1.89878e-05
1.89401e-05
1.89341e-05
1.90356e-05
1.96435e-05
2.05879e-05
2.11942e-05
2.15718e-05
2.00355e-05
1.87202e-05
1.76569e-05
1.54189e-05
1.3231e-05
1.25607e-05
1.26433e-05
1.31714e-05
1.47372e-05
1.57256e-05
1.59081e-05
1.58332e-05
1.54521e-05
1.51342e-05
1.50412e-05
1.50465e-05
1.51793e-05
1.56873e-05
2.3822e-05
3.29991e-05
3.294e-05
3.03163e-05
3.02192e-05
3.40671e-05
5.13474e-05
6.7417e-05
7.1292e-05
7.03044e-05
6.29146e-05
5.10744e-05
4.4738e-05
4.22271e-05
4.14355e-05
4.11065e-05
4.07383e-05
4.01368e-05
0.000358202
0.000494473
0.00041323
0.000312426
0.000326018
0.000322359
0.000304649
0.000303431
0.000298476
0.000263964
0.00018614
0.000137573
0.000113519
0.000103462
9.88257e-05
9.25638e-05
7.87783e-05
6.2908e-05
0.116686
0.137151
0.136279
0.13821
0.138853
0.14022
0.140536
0.140533
0.139977
0.137762
0.138908
0.146726
0.157393
0.158161
0.156262
0.150389
0.144023
0.138736
0.134545
0.132058
0.129692
0.128533
0.127603
0.127098
0.126977
0.127029
0.127308
0.128589
0.130772
0.131826
0.131575
0.121244
0.122253
0.0702551
0.0169308
0.0402185
0.0514054
0.0554439
0.0568941
0.0585322
0.062118
0.0677704
0.0780656
0.0896601
0.0899924
0.0910482
0.0953218
0.107315
0.121661
0.139069
0.175527
0.294345
0.447784
0.440182
0.402955
0.495875
0.223467
0.0605911
0.0463085
0.0439292
0.0436321
0.0432528
0.0429774
0.0419758
0.0405109
0.0390463
0.0375514
0.0373589
0.0375095
0.0381573
0.039428
0.0414182
0.043406
0.0440847
0.0442425
0.0438427
0.0414859
0.036608
0.0305854
0.0249191
0.0198795
0.0168039
0.0155631
0.0153228
0.0154281
0.0154671
0.0154827
0.0154673
0.0153687
0.0152346
0.015133
0.0150697
0.0150246
0.0149413
0.0148192
0.0147193
0.0146788
0.0146495
0.0146277
0.0145787
0.0145532
0.0145557
0.0145694
0.0145877
0.0146071
0.0146279
0.0146269
0.0146209
0.0146117
0.0145873
0.0145565
0.0145085
0.0144519
0.0143863
0.0143236
0.0142719
0.0142329
0.0142057
0.0141657
0.0141
0.0139877
0.0138123
0.013556
0.0132196
0.0128507
0.012491
0.0121502
0.0118276
0.0114536
0.0110773
0.0109055
0.010921
0.0108559
0.0107609
0.0109835
0.0117912
0.0133693
0.0169887
0.0434928
0.187876
0.30626
0.333779
0.336528
0.339541
0.336647
0.307603
0.268499
0.246528
0.239612
0.243398
0.281839
0.390074
0.452053
0.483303
0.581141
1.06156
1.25014
0.73816
0.168395
0.0983074
0.0826795
0.0719637
0.0632469
0.0582111
0.0539634
0.0515555
0.0505893
0.0497198
0.0490785
0.0485492
0.0481629
0.0478712
0.0476859
0.0476944
0.0478255
0.0480522
0.0483121
0.0487339
0.0501386
0.0462286
0.104804
0.0992105
0.106251
0.102049
0.112355
0.136178
0.147219
0.148291
0.146442
0.141771
0.13408
0.129554
0.120219
0.110344
0.103187
0.0983947
0.0954508
0.0939787
0.0936771
0.0931828
0.0922002
0.0916282
0.0905797
0.0903982
0.0907075
0.0916289
0.0937063
0.0974751
0.103178
0.113666
0.123181
0.124738
0.130012
0.130065
0.121517
0.0989724
0.0770276
0.0569942
0.0480379
0.045884
0.0459097
0.0452613
0.0449293
0.0466115
0.0488125
0.0511739
0.0567443
0.0668448
0.0714842
0.0778173
0.0936434
0.136849
0.254055
0.473772
0.381827
0.22437
0.0806321
0.0440775
0.0368674
0.0338
0.0311128
0.0292801
0.0274628
0.0258265
0.0243762
0.0229949
0.0220528
0.0213501
0.0210003
0.0209153
0.0209298
0.0211214
0.0213347
0.0213708
0.0212132
0.0204551
0.0190575
0.0174251
0.016718
0.0164988
0.0165287
0.0173677
0.0189598
0.0203835
0.0211355
0.0214993
0.0216323
0.0216266
0.0212174
0.0202683
0.0193395
0.0188071
0.0183623
0.0176181
0.0166565
0.0158282
0.015308
0.0149981
0.0146928
0.0143579
0.0140438
0.0138367
0.0137013
0.0135635
0.0134581
0.0133982
0.0134177
0.0134928
0.0136194
0.0137822
0.0138859
0.0139353
0.0138637
0.0136853
0.0135184
0.0134131
0.0133658
0.013406
0.0135948
0.0138952
0.01427
0.0146427
0.0148773
0.0149026
0.0146869
0.0141593
0.0136106
0.0129603
0.01227
0.0118642
0.0116885
0.0113174
0.0107659
0.0103897
0.00985901
0.00936241
0.00938167
0.0103908
0.0175826
0.0600709
0.132321
0.136929
0.123768
0.112344
0.116803
0.156038
0.192561
0.191613
0.155934
0.105277
0.100539
0.129698
0.14011
0.121899
0.133985
0.328329
0.976746
0.5659
0.118888
0.0713626
0.0579879
0.0499041
0.0444213
0.0415164
0.0396904
0.0390167
0.0388836
0.0391073
0.0393474
0.0395401
0.0396688
0.0397516
0.0398361
0.040016
0.0401874
0.0402016
0.0400702
0.0397588
0.0397769
0.0399768
0.0657956
0.0472502
0.0535699
0.0843929
0.132486
0.158134
0.157277
0.152286
0.139716
0.120158
0.10561
0.0912947
0.083586
0.0816818
0.0819191
0.0827867
0.084647
0.0868232
0.0888185
0.0903047
0.090505
0.0901999
0.0894779
0.0877037
0.0859271
0.0843431
0.0813654
0.079125
0.0790976
0.0804237
0.0853216
0.0954078
0.112689
0.123216
0.122807
0.120005
0.111365
0.0957997
0.084895
0.0706652
0.0646434
0.0548895
0.0488131
0.0502252
0.0570968
0.0689976
0.0755671
0.0837233
0.0849197
0.0866792
0.100289
0.192055
0.312302
0.343295
0.142229
0.0557934
0.027851
0.020369
0.0175906
0.0154773
0.0143084
0.0134235
0.0129792
0.0127016
0.0125283
0.0123312
0.0120209
0.0116468
0.011301
0.0109446
0.0104934
0.0102845
0.0102907
0.0104832
0.0109713
0.0118369
0.0132213
0.0152588
0.0178498
0.0207036
0.0247194
0.0305145
0.0367108
0.0401534
0.0417553
0.0425586
0.0428169
0.0427456
0.0417088
0.0396049
0.0374477
0.0357423
0.0339821
0.031639
0.0287911
0.0259053
0.0233915
0.0213788
0.0197518
0.0182929
0.0169358
0.0158264
0.0149463
0.0142418
0.0135283
0.0130225
0.0126363
0.0123506
0.0121481
0.0120147
0.0120559
0.0122029
0.0123577
0.0123743
0.0123265
0.012197
0.0120036
0.011727
0.011384
0.0110258
0.0107367
0.010614
0.0107015
0.0109714
0.0110507
0.0109712
0.0103969
0.00910525
0.00794464
0.0068444
0.00578371
0.00498147
0.00447921
0.00434242
0.00443202
0.00459335
0.00468536
0.00498195
0.00610902
0.0112293
0.0280652
0.0329044
0.0318591
0.0314365
0.0326143
0.0379435
0.0582084
0.0818604
0.0846124
0.080057
0.0622663
0.0562357
0.0510518
0.0495128
0.0888539
0.519269
0.966729
0.26706
0.0692236
0.0438543
0.0345337
0.0294736
0.0272349
0.0265577
0.0274483
0.0311724
0.0377292
0.0417155
0.0441126
0.0453727
0.0459953
0.0462148
0.0461165
0.0459532
0.0460228
0.0458372
0.0458137
0.0454778
0.0459307
0.0450624
0.0290286
0.0361812
0.107081
0.176756
0.169581
0.147808
0.1174
0.0920448
0.0777001
0.0710481
0.069285
0.0700977
0.0723056
0.0764868
0.0795673
0.0836274
0.0915679
0.100858
0.10683
0.113891
0.121167
0.122879
0.121999
0.11914
0.112583
0.102648
0.0922611
0.0843171
0.0798918
0.0762592
0.0756186
0.0767068
0.0807577
0.0922173
0.109638
0.113756
0.111718
0.104068
0.0917709
0.0819818
0.0727504
0.0593982
0.0589243
0.0652274
0.0767804
0.0896752
0.0888591
0.0923785
0.117324
0.14519
0.179881
0.212491
0.229046
0.096584
0.0408097
0.0208412
0.0147637
0.0128632
0.0120336
0.0116206
0.0115034
0.0115114
0.0118754
0.0123982
0.0129267
0.0132483
0.013339
0.0133637
0.0131547
0.0124109
0.0111797
0.0104011
0.0102698
0.0103268
0.0107952
0.012144
0.0149304
0.0198064
0.0275277
0.0390089
0.0484774
0.0517991
0.0531724
0.0536742
0.0538304
0.0538317
0.0535552
0.0528223
0.0517282
0.0504666
0.0491661
0.047845
0.0464262
0.0447905
0.0428674
0.0406888
0.038301
0.0356399
0.0328475
0.0300376
0.0274021
0.0249912
0.0227197
0.0206778
0.0186106
0.0166368
0.0148314
0.0134036
0.0123446
0.0115515
0.0109799
0.0105725
0.0103538
0.0104568
0.0107859
0.0112441
0.0115632
0.0116455
0.0115734
0.0112557
0.0107596
0.0101826
0.00974542
0.00969936
0.0103877
0.0126045
0.0147017
0.0158334
0.0161048
0.0159926
0.0153247
0.0145822
0.0141889
0.0140197
0.01395
0.0140789
0.0146569
0.0146626
0.0136433
0.01285
0.0133013
0.0133368
0.012907
0.0119863
0.0119912
0.0127227
0.0160257
0.0286595
0.03934
0.0400146
0.037622
0.0305606
0.0277444
0.0328734
0.121705
0.717852
0.777803
0.136336
0.0501843
0.040452
0.0364666
0.0362156
0.0404436
0.0448675
0.0484852
0.0502925
0.0509294
0.0511133
0.0512225
0.0514455
0.0516543
0.0519069
0.0519003
0.0512483
0.0508116
0.0503993
0.0503232
0.0504516
0.0510811
0.0522819
0.0437356
0.133171
0.16438
0.133688
0.0798201
0.0610686
0.0587908
0.0593679
0.0606822
0.0622488
0.0644051
0.0685033
0.0736809
0.0784872
0.0825307
0.0894919
0.102562
0.117784
0.131173
0.141737
0.150335
0.154986
0.155265
0.154299
0.151275
0.144516
0.129764
0.108999
0.0903797
0.0800893
0.0758017
0.0742624
0.074656
0.0772738
0.0856819
0.0965304
0.100718
0.0983029
0.0893696
0.0787919
0.0696397
0.0587423
0.0622751
0.0725243
0.0873301
0.105466
0.117869
0.126152
0.142091
0.154244
0.162809
0.13667
0.0665159
0.0315033
0.0182653
0.0141009
0.012984
0.0125778
0.0123904
0.012524
0.0131434
0.0138939
0.0148357
0.0157943
0.0162225
0.0163442
0.0159331
0.0147642
0.0138045
0.0126144
0.0120039
0.0118233
0.0117882
0.0119848
0.0130417
0.0158767
0.021707
0.031392
0.0441303
0.0517655
0.0542707
0.0551389
0.0553725
0.0554048
0.0553499
0.0550702
0.0544727
0.0535805
0.0524927
0.0513072
0.0500895
0.0488865
0.0476943
0.046423
0.0449929
0.0434154
0.041738
0.0398191
0.037741
0.0354713
0.0330076
0.0306652
0.0287225
0.0268822
0.0252258
0.0235884
0.0218337
0.0196698
0.0172193
0.0147292
0.0124855
0.0108374
0.00966299
0.00875908
0.00811308
0.00770966
0.00780123
0.00859197
0.00973106
0.010665
0.0109736
0.0108481
0.0100972
0.00907104
0.00833115
0.00818094
0.00878712
0.0116585
0.0144144
0.0154631
0.0155226
0.0149155
0.0126448
0.0103922
0.00905027
0.00861699
0.00871013
0.00977389
0.0121316
0.0130262
0.0130641
0.012276
0.0110905
0.00945446
0.00811697
0.00801642
0.00855375
0.0110792
0.0186186
0.0239345
0.0250049
0.0231906
0.0220562
0.0332423
0.181507
0.821592
0.572714
0.0840103
0.0476404
0.0444262
0.0454354
0.0481275
0.0506284
0.0523107
0.0530481
0.0532544
0.0531404
0.0528954
0.0522709
0.0521221
0.052213
0.0527737
0.0532601
0.0532715
0.0525009
0.0518492
0.0514193
0.0514217
0.0518824
0.0536455
0.0526311
0.152004
0.0922301
0.0489378
0.044894
0.0483944
0.0554311
0.0584419
0.0600024
0.0609321
0.0631416
0.0680658
0.0738475
0.0779592
0.0820061
0.0900419
0.107868
0.128032
0.145113
0.156536
0.162525
0.165323
0.16582
0.165521
0.164234
0.160501
0.149684
0.1317
0.11305
0.0950577
0.0815052
0.0753362
0.0739326
0.0743983
0.0775869
0.0844496
0.0859074
0.0850102
0.079587
0.0702522
0.0628294
0.0568626
0.0676651
0.0765119
0.0973742
0.110096
0.11424
0.118881
0.121503
0.107709
0.0802435
0.0440513
0.0250028
0.0170185
0.014461
0.013913
0.0138342
0.0147752
0.0155826
0.016359
0.0170578
0.0173727
0.0176068
0.0176785
0.0175218
0.0168703
0.0159027
0.0145778
0.0131403
0.0121557
0.0118972
0.0119163
0.0124335
0.013959
0.0168889
0.0218034
0.0296619
0.0403832
0.050009
0.0534983
0.0548268
0.0553282
0.055474
0.055486
0.055334
0.0546613
0.0532705
0.0513798
0.0494041
0.0475957
0.0460464
0.0448026
0.0438963
0.0431415
0.0423931
0.0415883
0.0406957
0.0394672
0.0378985
0.0360734
0.0338942
0.0316216
0.0297915
0.0281093
0.0266875
0.0254275
0.0242761
0.0231649
0.0219584
0.0204986
0.0186424
0.0162049
0.0135036
0.0107422
0.00862998
0.00717672
0.00616851
0.00549743
0.00525278
0.00577955
0.00770963
0.00952537
0.0102067
0.0100799
0.00904276
0.00772322
0.00714839
0.00726284
0.00892732
0.0126731
0.0146143
0.0149624
0.0145402
0.0121902
0.00875032
0.0066578
0.00602093
0.00613944
0.00723382
0.0103167
0.0114114
0.0113309
0.0110781
0.0101701
0.00911964
0.00879038
0.00887994
0.00933538
0.0110507
0.0159038
0.0186376
0.0185344
0.0190301
0.0367265
0.249478
0.853674
0.429759
0.0631402
0.0488865
0.0501706
0.049938
0.0516496
0.0538341
0.0549798
0.0555504
0.0557162
0.0550433
0.0545382
0.0529307
0.0522964
0.0521964
0.0525852
0.053538
0.054465
0.0540536
0.0530183
0.0519501
0.0515953
0.0519368
0.0536914
0.109008
0.0758953
0.0367196
0.0340499
0.0412129
0.0553992
0.0588643
0.0593804
0.0592831
0.0596311
0.0618966
0.0677732
0.0739623
0.078566
0.0833601
0.0936811
0.11937
0.144485
0.158335
0.16405
0.166818
0.167599
0.167582
0.166274
0.1623
0.15484
0.142553
0.127385
0.111088
0.0964381
0.0852822
0.0772889
0.0736714
0.073311
0.07442
0.0771871
0.0777423
0.0760929
0.068124
0.0621599
0.0577704
0.0581548
0.0678747
0.0665079
0.0834177
0.0886798
0.086361
0.0780835
0.0641393
0.0461027
0.031864
0.0209566
0.0162547
0.0145438
0.0141504
0.0142028
0.0152117
0.0162513
0.0168231
0.0172136
0.0173752
0.017418
0.0173641
0.0170491
0.016365
0.0151209
0.0134753
0.0117595
0.0108157
0.0105949
0.0107409
0.0115471
0.012976
0.0152288
0.0190882
0.0250296
0.0325644
0.0409058
0.0489317
0.0526207
0.0540251
0.0547367
0.0552034
0.0552498
0.0546186
0.052463
0.0485937
0.0437641
0.0389005
0.0345705
0.0314973
0.0295989
0.0287951
0.0285507
0.0287168
0.0294731
0.0306308
0.0316376
0.0320862
0.0321604
0.0315339
0.0301082
0.0289048
0.027759
0.0266789
0.0256337
0.0246532
0.0237517
0.0229226
0.0220194
0.0208426
0.0195251
0.0181081
0.016404
0.0137034
0.010328
0.00759709
0.00570995
0.00452901
0.00386756
0.00371301
0.00443902
0.00699741
0.00889414
0.00927208
0.00878376
0.00725056
0.00630971
0.00622124
0.00711778
0.0106252
0.0130475
0.0134884
0.0129395
0.00997897
0.00689021
0.00594873
0.00592198
0.00621762
0.0079531
0.0103398
0.0110782
0.0111959
0.0110313
0.0100462
0.00909589
0.00893849
0.00901879
0.00950452
0.0120058
0.0151847
0.0157726
0.0173142
0.0408986
0.321968
0.823533
0.341547
0.0560983
0.052402
0.0535148
0.052408
0.0547975
0.0568432
0.059309
0.0609838
0.0615583
0.0603727
0.0587152
0.055156
0.0531103
0.0522777
0.0522326
0.0531323
0.054703
0.0554184
0.0547483
0.0527975
0.0515001
0.05152
0.0527839
0.0375675
0.0443465
0.0271596
0.0328581
0.0519421
0.0591208
0.0601859
0.0600577
0.0607533
0.0632605
0.069299
0.0758235
0.0806057
0.0846778
0.0903554
0.106204
0.134478
0.152082
0.162116
0.163453
0.162291
0.157921
0.15018
0.144233
0.137148
0.129514
0.122071
0.113013
0.102995
0.0922359
0.0830573
0.076096
0.072644
0.0720906
0.0727976
0.0740164
0.0726988
0.0657194
0.0593419
0.0564801
0.0554927
0.0636837
0.0626204
0.0557542
0.0585642
0.0583116
0.0496975
0.0419858
0.0324413
0.0224588
0.0177368
0.0151095
0.0141005
0.0138032
0.0137464
0.0141149
0.0150316
0.0157153
0.0159439
0.0159537
0.0154387
0.0148068
0.0138818
0.0129581
0.0119404
0.0110352
0.0104506
0.0101196
0.0100354
0.0101659
0.0107592
0.0117572
0.0134765
0.0159386
0.0194637
0.0245621
0.0309608
0.0377969
0.0438772
0.0481664
0.0508512
0.0536901
0.0553174
0.0553593
0.0533892
0.0481053
0.039892
0.0305687
0.0239363
0.0207976
0.0188936
0.0173117
0.0159824
0.0147803
0.0137748
0.0131701
0.0131841
0.0141165
0.0160241
0.0185574
0.020822
0.0218672
0.0224077
0.0230572
0.0237021
0.0239616
0.0238799
0.0235387
0.0230276
0.0224153
0.0216703
0.0205514
0.0193076
0.0182397
0.0172706
0.0156248
0.0122918
0.00878128
0.00598958
0.00413286
0.00315687
0.0027977
0.00300892
0.00480844
0.00738497
0.00820767
0.00800373
0.00667943
0.00554124
0.00536864
0.006053
0.00906803
0.0110994
0.0112856
0.0102557
0.0078443
0.00662362
0.00642388
0.00659717
0.00776163
0.0104424
0.0116748
0.0118873
0.011783
0.0109798
0.00968116
0.00916101
0.00914276
0.00932227
0.0105999
0.0127665
0.0135902
0.0160291
0.0446766
0.373561
0.733004
0.283162
0.0568209
0.0563483
0.0547784
0.0549433
0.0586471
0.0631639
0.0675498
0.0698789
0.0707826
0.0694243
0.0664156
0.0612789
0.0560744
0.0531301
0.0523047
0.0527653
0.0544591
0.0560728
0.0560215
0.0545586
0.0515212
0.05041
0.0509802
0.0309753
0.0483674
0.0234677
0.0413771
0.0568422
0.0603439
0.0624879
0.0664017
0.0717405
0.0790736
0.0846473
0.087536
0.0883005
0.0900998
0.0976369
0.117532
0.140044
0.148148
0.146896
0.136011
0.123006
0.115798
0.111084
0.107305
0.103841
0.100943
0.097409
0.0931098
0.0881967
0.0828205
0.0771725
0.0728515
0.0707387
0.0704684
0.0704621
0.0690568
0.0630488
0.0563942
0.0532316
0.0541851
0.0568455
0.0672056
0.0570704
0.0473007
0.0452535
0.0391262
0.0299985
0.02564
0.0200122
0.0151753
0.0132872
0.0124045
0.0121342
0.0121197
0.0123525
0.0127551
0.012974
0.0130166
0.0129915
0.0128723
0.0126995
0.0124507
0.0120866
0.0117151
0.0113827
0.0110993
0.0109665
0.0109887
0.0112563
0.0116936
0.0124605
0.013664
0.0154084
0.017856
0.0209826
0.0250232
0.0300618
0.0354094
0.0405103
0.0452182
0.0503288
0.0554259
0.0564985
0.0551264
0.049754
0.0394345
0.0270407
0.0214472
0.019403
0.018196
0.0170553
0.0158721
0.014578
0.0131371
0.0115988
0.0100911
0.00880416
0.00783756
0.00734553
0.00766708
0.00895092
0.011377
0.0136695
0.015472
0.0170237
0.0186445
0.0199636
0.0209612
0.0217717
0.02208
0.0219143
0.0213325
0.0201961
0.0190403
0.0183378
0.0176801
0.0163353
0.013264
0.00957679
0.00629433
0.00395227
0.00270376
0.00226696
0.00234938
0.00363212
0.00619763
0.00713496
0.00704089
0.00590106
0.00477047
0.00461479
0.00526788
0.00784184
0.00930039
0.0093775
0.00872028
0.0071813
0.00647814
0.00659018
0.00763976
0.0108012
0.0127108
0.0131031
0.0130098
0.0124265
0.0109171
0.00989596
0.00959326
0.00960407
0.0100228
0.0110559
0.0119671
0.0150703
0.047416
0.393584
0.668403
0.270338
0.0594731
0.05839
0.0556388
0.0582325
0.0649129
0.0720528
0.0771523
0.0795064
0.0802662
0.0785755
0.0752227
0.069901
0.0620795
0.0558902
0.0531028
0.0528384
0.0539962
0.0566144
0.0571217
0.0564314
0.052595
0.0494262
0.0491081
0.0377339
0.052652
0.0168169
0.0492794
0.0602518
0.0643044
0.0720887
0.0821902
0.0912806
0.0955347
0.0962745
0.0937907
0.0913963
0.0921029
0.102025
0.120401
0.124323
0.12307
0.114043
0.0992945
0.0914476
0.087526
0.0856279
0.0840817
0.0834248
0.0831021
0.0824592
0.0805939
0.077721
0.0739114
0.0711241
0.0692718
0.0680377
0.0669485
0.0642857
0.0587673
0.0530758
0.0502154
0.0500609
0.0525792
0.0598057
0.0702427
0.0519155
0.0420378
0.0379652
0.0295117
0.021629
0.0184034
0.0152294
0.0128772
0.0119009
0.0110789
0.0108282
0.0108078
0.0109014
0.0111533
0.0114991
0.0119045
0.0123351
0.0126856
0.012905
0.0131844
0.0135893
0.0142826
0.0154559
0.0172097
0.0193454
0.0215104
0.0234144
0.024707
0.0255888
0.026369
0.027126
0.0283899
0.0305239
0.0335508
0.037457
0.0421931
0.0474805
0.0533342
0.057682
0.058352
0.056744
0.0513419
0.0401104
0.0257655
0.0210301
0.0198854
0.0193877
0.0193778
0.0195385
0.0194619
0.018845
0.017364
0.0152154
0.0125877
0.00993244
0.00782429
0.00641165
0.00564755
0.00545055
0.00669522
0.00986243
0.012308
0.0140379
0.0154504
0.0167715
0.0177917
0.0186246
0.0198489
0.0210545
0.0213853
0.0211959
0.0204395
0.0195162
0.0188192
0.0180649
0.0163953
0.0132628
0.00959787
0.00617499
0.00366537
0.00232668
0.00189406
0.00196958
0.00312674
0.00538033
0.00616955
0.00607017
0.00499607
0.0040038
0.00391163
0.00457019
0.0066385
0.00755211
0.00756286
0.00717743
0.00643193
0.00627059
0.00694652
0.0101046
0.0131333
0.0140681
0.014077
0.0136461
0.0120927
0.0106348
0.0100427
0.00990985
0.00996943
0.0102831
0.0110489
0.0143884
0.0475365
0.392491
0.623332
0.274095
0.0645079
0.0590152
0.0567566
0.0627624
0.0729375
0.0805329
0.0847874
0.086336
0.0859479
0.0841566
0.0812451
0.0769536
0.0692548
0.0606301
0.0548523
0.0535226
0.0540029
0.0566734
0.0580928
0.0577805
0.0544986
0.049354
0.0479486
0.0410028
0.0540696
0.0126593
0.0588388
0.0644283
0.0735489
0.0881441
0.101488
0.105823
0.105121
0.100728
0.0944856
0.0917227
0.0923696
0.0985468
0.104484
0.105099
0.10083
0.0887516
0.0797465
0.076166
0.0736032
0.0723607
0.0717184
0.0713185
0.0712984
0.0712976
0.0707328
0.0695478
0.0683886
0.0665576
0.0643471
0.0617783
0.0577635
0.0532316
0.0494392
0.0475447
0.0470369
0.048754
0.0524528
0.0626834
0.0748091
0.0502446
0.0404251
0.0360414
0.0279477
0.0199034
0.0165441
0.0140124
0.0124344
0.0116815
0.0107753
0.0104665
0.0104421
0.0105658
0.0109384
0.0114898
0.0121836
0.013146
0.0144589
0.0164155
0.0194124
0.0240965
0.0296694
0.0352544
0.0402551
0.0439198
0.0464614
0.0479159
0.0488671
0.0494021
0.0497822
0.0501471
0.0506227
0.0512963
0.0521392
0.0532033
0.0545818
0.0561064
0.0567167
0.0559514
0.0526086
0.0471328
0.0379066
0.0249191
0.0201771
0.0199997
0.0207362
0.0235556
0.0273256
0.029963
0.0311735
0.0315603
0.0302077
0.0278132
0.0241374
0.0188908
0.0133072
0.00899532
0.00629749
0.00503615
0.00464572
0.00532716
0.0081493
0.0112876
0.0135352
0.0153322
0.0166684
0.0174307
0.0179748
0.0190275
0.0204139
0.0211066
0.0212653
0.0212216
0.0208568
0.020045
0.0186045
0.0161282
0.01279
0.00905457
0.00564724
0.0032093
0.00196374
0.00160549
0.00172415
0.00293888
0.00476291
0.00529912
0.00513562
0.00406095
0.00326638
0.00323667
0.00388649
0.00534046
0.00582119
0.00583518
0.00587457
0.00588634
0.00616096
0.0083736
0.012393
0.0141196
0.0143625
0.0140627
0.0126077
0.0108933
0.0101606
0.0099614
0.00996035
0.01008
0.0106163
0.0138733
0.046034
0.37474
0.582139
0.285919
0.0722923
0.0593383
0.0592732
0.0676535
0.0797334
0.0869298
0.0894407
0.0897971
0.0887237
0.0867585
0.0838966
0.0802041
0.0747758
0.0655669
0.0575385
0.0546868
0.0545665
0.0566797
0.0590559
0.0589676
0.0564124
0.0496164
0.0472202
0.04527
0.054228
0.0115155
0.0626819
0.06825
0.0828588
0.10176
0.111942
0.112931
0.108997
0.100664
0.0916275
0.0884442
0.0882382
0.0895119
0.08994
0.0879791
0.0804743
0.0718538
0.0688572
0.0673554
0.0655542
0.0641502
0.0637769
0.0636458
0.0635337
0.0629812
0.0619762
0.0603095
0.057946
0.0555069
0.0526579
0.0501522
0.0481591
0.0469694
0.0464734
0.0465843
0.0476266
0.0504053
0.0560185
0.0691109
0.0814227
0.0508969
0.0405837
0.0362369
0.0285137
0.0202441
0.0166554
0.0140991
0.0125743
0.0118397
0.0109039
0.0105486
0.0105194
0.0107044
0.0113176
0.0124827
0.014408
0.0175653
0.0230973
0.0301523
0.0371966
0.0430536
0.0471824
0.0497906
0.0510641
0.0515034
0.0509097
0.0501828
0.0495251
0.0490811
0.0487469
0.0484621
0.0481666
0.0480954
0.0480617
0.0480927
0.0481352
0.0469208
0.0439696
0.0401533
0.0362024
0.0314152
0.0243729
0.0191347
0.0191248
0.0211539
0.0265281
0.0353725
0.0421337
0.0445644
0.0447606
0.042373
0.0393045
0.0367654
0.0346799
0.0323712
0.0272971
0.0189492
0.0116077
0.00700471
0.00466823
0.00373425
0.0035954
0.005013
0.00861783
0.0121511
0.0148333
0.016498
0.0173345
0.0180368
0.0191443
0.0203594
0.0211775
0.0215472
0.0216354
0.0215477
0.0210621
0.0195169
0.0162358
0.0121762
0.00822594
0.00489415
0.00266882
0.00162499
0.00137556
0.00156252
0.0028543
0.00419702
0.00449004
0.00423783
0.00317365
0.00258363
0.00258658
0.00312922
0.00392468
0.0041607
0.00434248
0.00457176
0.00504381
0.00683182
0.0111386
0.0135935
0.0141434
0.0139238
0.0125568
0.010825
0.0100933
0.00991364
0.00990851
0.00998062
0.010412
0.0134751
0.0428941
0.333714
0.545091
0.309123
0.0836774
0.0602059
0.0614677
0.071511
0.0838565
0.0901534
0.0921694
0.0917034
0.0908548
0.0890233
0.0857012
0.081752
0.0776122
0.0693338
0.0606226
0.0560449
0.055522
0.0570784
0.0604124
0.0605032
0.0581438
0.0499036
0.0458576
0.0468955
0.0536743
0.0163207
0.0637485
0.070279
0.0888216
0.110646
0.117585
0.116473
0.109344
0.0971047
0.0849771
0.0800992
0.0784386
0.077658
0.0763331
0.0727558
0.0671927
0.0632103
0.0615788
0.060276
0.0584866
0.0570833
0.0560656
0.0542862
0.0522007
0.0509034
0.0495855
0.0487504
0.0483987
0.0481304
0.047712
0.0475562
0.0475091
0.0475602
0.0483896
0.0503832
0.0536199
0.0584588
0.0660793
0.0853022
0.0903677
0.0526344
0.0414765
0.0373403
0.0301949
0.021711
0.0176391
0.0148743
0.0133393
0.0126637
0.0118433
0.0113745
0.0113097
0.0116435
0.0130872
0.0165205
0.0231442
0.0304135
0.0376545
0.0441507
0.0491597
0.0519791
0.0534194
0.0539548
0.0532253
0.0514464
0.0481761
0.0446094
0.0413877
0.0384215
0.0363079
0.0348434
0.0340286
0.0336221
0.0330714
0.0324797
0.0318861
0.0309831
0.0302274
0.0294475
0.0278743
0.024468
0.019354
0.0174506
0.0195242
0.0259171
0.0390816
0.0511653
0.055406
0.0563648
0.0527182
0.0475804
0.0432769
0.0398198
0.0374633
0.0360485
0.034807
0.0319378
0.0240686
0.0142617
0.00789431
0.00443557
0.00297854
0.00251091
0.00287491
0.00533859
0.00981263
0.0134534
0.0157811
0.0172512
0.0184376
0.0196403
0.020706
0.0214147
0.0216972
0.0217179
0.0215736
0.020947
0.0191234
0.0158015
0.0113355
0.00722182
0.00406128
0.00213736
0.00133494
0.00119497
0.00146387
0.00273887
0.00361025
0.00372331
0.0033733
0.00239183
0.00196859
0.00196947
0.00228589
0.00263627
0.00278837
0.00305572
0.00361347
0.00533179
0.00953748
0.0124347
0.013395
0.0133197
0.0121868
0.0104765
0.00980059
0.00970359
0.00974034
0.00987006
0.0103217
0.0131235
0.0379985
0.28453
0.510648