/*--------------------------------*- C++ -*----------------------------------*\
  =========                 |
  \\      /  F ield         | OpenFOAM: The Open Source CFD Toolbox
   \\    /   O peration     | Website:  https://openfoam.org
    \\  /    A nd           | Version:  6
     \\/     M anipulation  |
\*---------------------------------------------------------------------------*/
FoamFile
{
    version     2.0;
    format      ascii;
    class       volScalarField;
    location    "0.25";
    object      k_0;
}
// * * * * * * * * * * * * * * * * * * * * * * * * * * * * * * * * * * * * * //

dimensions      [0 2 -2 0 0 0 0];

internalField   nonuniform List<scalar> 
12225
(
0.000312962
0.000725134
0.000784558
0.000657885
0.000348036
0.000191086
0.000135838
0.000126219
0.000132371
0.000170057
0.000295216
0.000692967
0.00168562
0.002454
0.00279328
0.00283852
0.00260914
0.00333767
2.61153e-05
8.357e-05
0.000116188
0.000113993
8.95645e-05
6.16358e-05
5.0972e-05
4.93553e-05
5.07931e-05
5.80924e-05
7.84236e-05
0.000129354
0.000235464
0.000375371
0.000635472
0.00119759
0.00154518
0.00194971
2.03736e-05
1.86822e-05
1.96179e-05
2.05343e-05
2.02858e-05
1.95443e-05
1.93378e-05
1.94283e-05
1.99023e-05
2.12649e-05
2.44417e-05
2.91924e-05
3.7592e-05
5.40665e-05
9.24859e-05
0.000200681
0.00030438
0.000505784
2.10992e-05
2.06302e-05
2.02089e-05
1.9958e-05
1.97564e-05
1.95685e-05
1.93557e-05
1.89045e-05
1.73125e-05
1.5972e-05
1.5956e-05
1.69524e-05
1.87026e-05
2.05105e-05
2.41718e-05
3.33709e-05
5.02736e-05
8.98954e-05
2.44585e-05
2.166e-05
2.12696e-05
2.1801e-05
2.21832e-05
2.22115e-05
2.20831e-05
2.23655e-05
2.19028e-05
2.08017e-05
2.10362e-05
2.26583e-05
2.70352e-05
3.64146e-05
4.15697e-05
4.4409e-05
4.69463e-05
5.14651e-05
2.26462e-05
2.08783e-05
2.03379e-05
2.07684e-05
2.2343e-05
2.3038e-05
2.30691e-05
2.31021e-05
2.34814e-05
2.86933e-05
6.50723e-05
0.000123022
0.000140724
0.000140733
0.000129568
9.5819e-05
6.7838e-05
5.27194e-05
2.19728e-05
2.06225e-05
2.04378e-05
2.12581e-05
2.71861e-05
3.59919e-05
3.51705e-05
2.94155e-05
2.9006e-05
3.52737e-05
7.52557e-05
0.000106187
0.000109903
0.000106477
9.01396e-05
6.98261e-05
5.43712e-05
4.33608e-05
2.28742e-05
2.18433e-05
2.29373e-05
2.89107e-05
3.30793e-05
3.36773e-05
3.03759e-05
2.57448e-05
2.51037e-05
2.65864e-05
3.78455e-05
6.89745e-05
8.02841e-05
7.85801e-05
6.50274e-05
5.22202e-05
4.57612e-05
4.10671e-05
2.6161e-05
3.27964e-05
2.88825e-05
2.77679e-05
2.75905e-05
2.51813e-05
2.32887e-05
2.33917e-05
2.64431e-05
4.81618e-05
7.51475e-05
7.73699e-05
7.07975e-05
5.23228e-05
4.00488e-05
3.46687e-05
3.3484e-05
3.38233e-05
2.13067e-05
2.53671e-05
3.04761e-05
3.15852e-05
2.75424e-05
2.39046e-05
2.37057e-05
2.59963e-05
3.74242e-05
4.5483e-05
4.55679e-05
4.09406e-05
3.33586e-05
2.96149e-05
2.74025e-05
2.60127e-05
2.55166e-05
2.5602e-05
2.19908e-05
2.77742e-05
2.73751e-05
2.3851e-05
2.25574e-05
2.36712e-05
3.2954e-05
4.20251e-05
4.26213e-05
3.88214e-05
3.15129e-05
2.7189e-05
2.49514e-05
2.40075e-05
2.37644e-05
2.38358e-05
2.4447e-05
2.5013e-05
2.05742e-05
2.29415e-05
2.33486e-05
2.28698e-05
2.19356e-05
2.17803e-05
2.1986e-05
2.24696e-05
2.2552e-05
2.21439e-05
2.1505e-05
2.12873e-05
2.13026e-05
2.16799e-05
2.3411e-05
3.02822e-05
3.84737e-05
4.13639e-05
2.11543e-05
2.52589e-05
2.52163e-05
2.34045e-05
2.16216e-05
2.11545e-05
2.11045e-05
2.11554e-05
2.1272e-05
2.12437e-05
2.09402e-05
2.07358e-05
2.07127e-05
2.07951e-05
2.129e-05
2.29645e-05
2.81753e-05
3.5167e-05
2.03534e-05
2.43046e-05
2.5099e-05
2.33046e-05
2.1381e-05
2.0807e-05
2.08655e-05
2.19545e-05
2.6615e-05
2.97385e-05
2.98694e-05
2.78636e-05
2.47867e-05
2.35689e-05
2.33431e-05
2.34854e-05
2.41254e-05
2.59627e-05
2.0868e-05
2.27876e-05
2.28494e-05
2.19159e-05
2.17412e-05
2.15913e-05
2.12955e-05
2.12502e-05
2.1395e-05
2.19416e-05
2.34584e-05
2.85111e-05
3.42723e-05
3.62313e-05
3.65013e-05
3.63896e-05
3.57215e-05
3.29937e-05
2.28962e-05
2.24302e-05
2.1484e-05
2.20442e-05
2.49842e-05
2.59379e-05
2.4997e-05
2.30073e-05
2.25091e-05
2.28077e-05
2.54243e-05
3.74486e-05
4.84152e-05
5.15335e-05
5.14708e-05
4.84944e-05
3.97276e-05
3.30191e-05
2.13153e-05
2.12487e-05
2.05927e-05
2.06502e-05
2.13639e-05
2.19787e-05
2.21147e-05
2.20531e-05
2.1862e-05
2.18575e-05
2.19783e-05
2.25736e-05
2.37391e-05
2.44467e-05
2.46563e-05
2.45884e-05
2.40672e-05
2.36589e-05
2.00468e-05
2.03245e-05
2.21598e-05
2.38605e-05
2.42524e-05
2.38059e-05
2.2343e-05
2.1491e-05
2.11101e-05
2.09786e-05
2.09726e-05
2.09805e-05
2.09558e-05
2.08796e-05
2.08096e-05
2.07929e-05
2.07951e-05
2.08345e-05
2.00923e-05
2.09413e-05
2.14273e-05
2.18775e-05
2.29759e-05
2.51227e-05
2.59125e-05
2.58289e-05
2.5042e-05
2.33409e-05
2.2198e-05
2.15977e-05
2.12205e-05
2.09115e-05
2.07304e-05
2.06577e-05
2.06606e-05
2.07199e-05
2.05761e-05
2.07511e-05
2.08185e-05
2.11659e-05
2.30767e-05
2.47606e-05
2.46361e-05
2.33518e-05
2.21563e-05
2.17069e-05
2.16479e-05
2.17321e-05
2.19573e-05
2.24576e-05
2.38993e-05
2.51123e-05
2.56499e-05
2.57512e-05
2.02748e-05
2.1624e-05
2.22268e-05
2.2144e-05
2.13262e-05
2.11146e-05
2.138e-05
2.2987e-05
2.44603e-05
2.46123e-05
2.42886e-05
2.35011e-05
2.30671e-05
2.29086e-05
2.28657e-05
2.28079e-05
2.25884e-05
2.22602e-05
2.01105e-05
2.15722e-05
2.31338e-05
2.40849e-05
2.35765e-05
2.16887e-05
2.11361e-05
2.11083e-05
2.12467e-05
2.1568e-05
2.18466e-05
2.19916e-05
2.1981e-05
2.17723e-05
2.14679e-05
2.12963e-05
2.12356e-05
2.12367e-05
2.05193e-05
2.16584e-05
2.21272e-05
2.22506e-05
2.2194e-05
2.18366e-05
2.16394e-05
2.16608e-05
2.19433e-05
2.20644e-05
2.19261e-05
2.14169e-05
2.11133e-05
2.10053e-05
2.09803e-05
2.1003e-05
2.11604e-05
2.13932e-05
2.04432e-05
2.07212e-05
2.1179e-05
2.28026e-05
2.40745e-05
2.45494e-05
2.51184e-05
2.70425e-05
3.09166e-05
3.1681e-05
2.99245e-05
2.61975e-05
2.41633e-05
2.28843e-05
2.20453e-05
2.18149e-05
2.18715e-05
2.23061e-05
2.11656e-05
2.10482e-05
2.11388e-05
2.17416e-05
2.2143e-05
2.28716e-05
2.43232e-05
2.48307e-05
2.47105e-05
2.37564e-05
2.31023e-05
2.30299e-05
2.32902e-05
2.39022e-05
2.41781e-05
2.50026e-05
2.7613e-05
3.73121e-05
2.01483e-05
2.01994e-05
2.04079e-05
2.10542e-05
2.12922e-05
2.12714e-05
2.1023e-05
2.08486e-05
2.08524e-05
2.10553e-05
2.21072e-05
2.40178e-05
2.5331e-05
2.61031e-05
2.6495e-05
2.66659e-05
2.67061e-05
2.67038e-05
2.01744e-05
2.04502e-05
2.04792e-05
2.04673e-05
2.04236e-05
2.02366e-05
1.9801e-05
1.94346e-05
1.92038e-05
1.90754e-05
1.89938e-05
1.89514e-05
1.89512e-05
1.90821e-05
1.9772e-05
2.06875e-05
2.12599e-05
2.1609e-05
2.00363e-05
1.87295e-05
1.76064e-05
1.52876e-05
1.31439e-05
1.25411e-05
1.26441e-05
1.32286e-05
1.48293e-05
1.57348e-05
1.58773e-05
1.57848e-05
1.53792e-05
1.50895e-05
1.50137e-05
1.50266e-05
1.51954e-05
1.57501e-05
2.36679e-05
3.26184e-05
3.25116e-05
2.99154e-05
2.99917e-05
3.43969e-05
5.27141e-05
6.78157e-05
7.10588e-05
6.97817e-05
6.15156e-05
5.00516e-05
4.41893e-05
4.19614e-05
4.12845e-05
4.09846e-05
4.06175e-05
4.00099e-05
0.00035892
0.00048713
0.00040257
0.000307207
0.000321769
0.000317991
0.00030428
0.000303845
0.000298124
0.000258824
0.000181309
0.000134836
0.000112277
0.000102987
9.84686e-05
9.18032e-05
7.7392e-05
6.1579e-05
0.11669
0.137193
0.136303
0.138213
0.138858
0.140237
0.14055
0.14054
0.13996
0.13775
0.138939
0.146878
0.157472
0.158181
0.156247
0.1503
0.143935
0.138644
0.134481
0.132004
0.129636
0.128481
0.127573
0.127099
0.126996
0.127056
0.127361
0.128718
0.130861
0.131867
0.131566
0.121029
0.122074
0.0706326
0.0168554
0.0400948
0.0513705
0.0554331
0.0569133
0.0585705
0.0621826
0.0678528
0.0782812
0.0899508
0.0902377
0.0912991
0.095655
0.107755
0.121965
0.139554
0.176527
0.296977
0.448105
0.440159
0.402689
0.496014
0.219802
0.0602633
0.0462703
0.0439223
0.043612
0.0431936
0.0428936
0.0418962
0.0404252
0.0389894
0.0373693
0.0371119
0.0372175
0.0377929
0.0389724
0.0408628
0.0429122
0.0436668
0.0438513
0.0435503
0.0414265
0.0367674
0.0308259
0.0251696
0.0201209
0.0169032
0.0155984
0.0153133
0.0154144
0.0154566
0.0154731
0.0154615
0.0153693
0.0152365
0.0151325
0.0150669
0.0150232
0.0149447
0.0148254
0.014724
0.0146821
0.0146528
0.014632
0.0145844
0.0145589
0.0145615
0.0145756
0.0145944
0.0146141
0.014634
0.0146319
0.0146257
0.0146162
0.0145914
0.0145603
0.014512
0.0144553
0.0143896
0.0143269
0.0142752
0.0142362
0.0142088
0.0141682
0.0141014
0.0139872
0.0138093
0.0135503
0.0132122
0.0128427
0.0124836
0.0121435
0.0118206
0.0114461
0.0110724
0.0109055
0.0109223
0.0108511
0.010757
0.010984
0.0118005
0.0133871
0.0170745
0.0444142
0.190385
0.30706
0.333972
0.336722
0.339789
0.33674
0.30732
0.268324
0.246469
0.239608
0.243517
0.282491
0.390996
0.452528
0.483888
0.583421
1.06756
1.24951
0.730234
0.166547
0.0980999
0.0825848
0.0719041
0.0631982
0.0581866
0.0539948
0.0516069
0.050644
0.0497795
0.0491389
0.0486099
0.0482229
0.0479302
0.0477424
0.0477487
0.0478791
0.0481057
0.048367
0.0487912
0.0502044
0.0462925
0.104782
0.0993031
0.106335
0.102102
0.112403
0.136197
0.147197
0.14824
0.146389
0.141701
0.134035
0.129467
0.120079
0.110238
0.103133
0.0983884
0.0954661
0.0940189
0.0937087
0.0931473
0.0921462
0.0915641
0.0904826
0.090294
0.0906047
0.0915362
0.0936568
0.0974653
0.103299
0.113825
0.123253
0.124781
0.129969
0.129991
0.121273
0.0987213
0.0769001
0.056914
0.0479607
0.0458216
0.0458353
0.0451724
0.0448362
0.0465073
0.0487195
0.0511554
0.0570004
0.067159
0.0717111
0.0780707
0.0940711
0.137783
0.257645
0.473651
0.379568
0.223336
0.0798398
0.0438779
0.0367427
0.0336926
0.0310058
0.029177
0.0273803
0.0257603
0.0243292
0.0229509
0.021999
0.0212898
0.0209043
0.0208044
0.0208089
0.0209763
0.0211979
0.0212403
0.0211134
0.0204215
0.0190941
0.0174639
0.0166917
0.0164492
0.0164542
0.0171983
0.0187463
0.0201976
0.0209956
0.0213784
0.0215266
0.021531
0.021171
0.0202528
0.0193042
0.0187484
0.0183164
0.0176019
0.0166533
0.0158184
0.0152896
0.0149812
0.0146835
0.014354
0.0140415
0.0138347
0.0137012
0.0135653
0.013462
0.0134042
0.0134269
0.0135035
0.0136314
0.0137925
0.0138934
0.0139414
0.0138684
0.0136897
0.0135234
0.0134187
0.0133733
0.0134175
0.0136117
0.0139153
0.014293
0.0146639
0.0148925
0.0149123
0.0146842
0.014152
0.0136006
0.0129474
0.0122594
0.01186
0.0116836
0.0113055
0.0107542
0.0103784
0.00984516
0.0093562
0.00938264
0.0104222
0.0178027
0.0612708
0.132552
0.136685
0.123343
0.112266
0.116978
0.156942
0.192739
0.191489
0.155046
0.104884
0.100494
0.129971
0.139884
0.121718
0.134538
0.333941
0.9837
0.556999
0.117695
0.0710957
0.0578623
0.0498466
0.0443951
0.0415097
0.0396867
0.0390148
0.0388834
0.0390959
0.0393282
0.0395152
0.0396398
0.03972
0.0398039
0.0399851
0.0401579
0.0401717
0.0400395
0.0397343
0.0397567
0.0399701
0.0656949
0.0472906
0.0535741
0.0842469
0.132324
0.158107
0.157263
0.152281
0.13974
0.120198
0.105609
0.091291
0.0836723
0.081811
0.082054
0.0829266
0.0847984
0.0869458
0.0889121
0.0903213
0.0904752
0.0901507
0.0893922
0.0875401
0.0857774
0.0841177
0.0810728
0.0789088
0.0789122
0.0803037
0.0852969
0.0955839
0.112842
0.123194
0.122729
0.119822
0.110952
0.0954757
0.0846134
0.0703886
0.0643856
0.0546408
0.0486212
0.0501174
0.057242
0.06909
0.0757008
0.0838823
0.0850876
0.0869155
0.101092
0.194373
0.312282
0.33987
0.140575
0.0554148
0.0276432
0.0202433
0.0174837
0.0153793
0.0142127
0.0133304
0.0128914
0.012628
0.0124697
0.0122937
0.0120029
0.0116392
0.0112981
0.0109502
0.0105039
0.010246
0.010236
0.0103957
0.0108398
0.0116521
0.01297
0.0149426
0.0175096
0.020336
0.0241862
0.0297956
0.0360267
0.0397681
0.0414587
0.0423229
0.0426177
0.0425847
0.0416429
0.039576
0.0373755
0.0356354
0.0338934
0.0315846
0.0287465
0.0258437
0.0233088
0.0212918
0.0196805
0.0182461
0.0168964
0.0157889
0.0149134
0.0142168
0.0135115
0.0130108
0.0126302
0.0123488
0.0121495
0.012022
0.0120698
0.01222
0.0123708
0.0123844
0.0123344
0.0122023
0.0120057
0.0117256
0.0113805
0.0110227
0.0107379
0.0106238
0.0107238
0.0109965
0.0110734
0.0109872
0.0103858
0.00908575
0.00792634
0.00682474
0.00576614
0.00497103
0.00447791
0.00434862
0.00444231
0.00460143
0.00469342
0.00499361
0.00614067
0.0113756
0.0282358
0.0328477
0.0317874
0.0313995
0.0326102
0.0380543
0.0587115
0.0820117
0.0845576
0.0798535
0.0619538
0.056084
0.0509028
0.0495337
0.0901189
0.528307
0.966566
0.261342
0.0686692
0.0436988
0.0344472
0.0294227
0.0271991
0.0265277
0.0274441
0.0312043
0.0377519
0.0416899
0.0440523
0.0452928
0.0459037
0.0461171
0.0460161
0.0458664
0.0459387
0.0457577
0.0457324
0.0453974
0.0458668
0.0449999
0.0289884
0.0361417
0.106967
0.176842
0.169773
0.148217
0.117763
0.0924536
0.0779384
0.0712229
0.0694555
0.0702808
0.0725156
0.0766934
0.0797573
0.0839481
0.0920451
0.101209
0.107091
0.11424
0.121357
0.122884
0.121957
0.119018
0.112287
0.102256
0.0918415
0.0840002
0.0796067
0.076058
0.0754988
0.0766298
0.0807784
0.0924666
0.109693
0.113578
0.111462
0.103607
0.0913934
0.0816966
0.0724762
0.0592336
0.0588374
0.0653341
0.0768064
0.0895422
0.088647
0.0925047
0.117746
0.145575
0.180598
0.211751
0.226668
0.0953715
0.0404055
0.0207311
0.014715
0.0128346
0.0120122
0.0115934
0.011474
0.0114785
0.0118298
0.0123501
0.0128934
0.0132584
0.0133667
0.0133988
0.0132195
0.0125196
0.0113161
0.010436
0.0102664
0.0102995
0.0106977
0.011922
0.0145353
0.0191853
0.0265858
0.037718
0.0479016
0.0515426
0.053052
0.0536125
0.0537965
0.0538124
0.0535779
0.0528881
0.0518147
0.0505534
0.0492453
0.0479173
0.0464948
0.0448557
0.0429233
0.0407265
0.0383147
0.0356251
0.0328034
0.0299694
0.0273266
0.0249134
0.0226382
0.0205991
0.0185354
0.0165677
0.0147747
0.0133676
0.0123191
0.0115356
0.0109723
0.0105707
0.0103655
0.0104801
0.0108182
0.0112768
0.0115847
0.0116596
0.0115789
0.0112498
0.0107475
0.0101671
0.009739
0.00970574
0.0104376
0.0126911
0.0147637
0.0158616
0.0161137
0.0159897
0.0153011
0.0145688
0.0141849
0.0140209
0.0139566
0.0140962
0.0146778
0.0146734
0.0136229
0.0128485
0.0132915
0.0133161
0.0128671
0.0119593
0.0119721
0.012728
0.0161152
0.0289457
0.0393854
0.0399735
0.0374848
0.0304033
0.0276836
0.0330635
0.124417
0.72606
0.770949
0.133879
0.0499795
0.0404332
0.036456
0.0363081
0.0405238
0.0449356
0.0485129
0.0502924
0.0509094
0.051087
0.0512027
0.0514241
0.0516284
0.0518753
0.0518565
0.0511959
0.0507655
0.0503611
0.0502952
0.0504281
0.0510795
0.0523115
0.043727
0.133153
0.164631
0.133962
0.0800683
0.0613038
0.0589542
0.0595043
0.0608037
0.0624044
0.0646117
0.0687492
0.0739242
0.0787298
0.0828399
0.090029
0.103216
0.118396
0.131635
0.142109
0.150615
0.155089
0.155303
0.154295
0.151186
0.144247
0.129196
0.108345
0.0899051
0.079814
0.0756277
0.0741765
0.0746015
0.0772934
0.0858429
0.0964894
0.100445
0.0979413
0.0889407
0.0784986
0.0694212
0.0586458
0.0622907
0.0725663
0.0870485
0.105138
0.117579
0.125831
0.141705
0.153665
0.16229
0.134699
0.0656358
0.0311972
0.0181838
0.0140865
0.0129921
0.0125977
0.0124099
0.0125526
0.0131876
0.0139363
0.0148618
0.0158291
0.0162717
0.0164042
0.0160217
0.0148683
0.0139064
0.0127138
0.0120397
0.0118475
0.0118057
0.0119689
0.012926
0.0155592
0.0210588
0.0303678
0.0429772
0.0513671
0.0541175
0.0550906
0.0553631
0.0554056
0.0553653
0.055114
0.0545512
0.0536894
0.052621
0.051444
0.0502266
0.0490184
0.0478198
0.0465438
0.0451078
0.0435204
0.0418339
0.0399075
0.0378149
0.0355242
0.0330416
0.030682
0.0287228
0.0268691
0.0251995
0.0235512
0.0217805
0.0195956
0.0171409
0.0146537
0.0124236
0.0107983
0.00963511
0.00874242
0.00810543
0.0077182
0.00783592
0.00865495
0.00979373
0.010707
0.0109924
0.0108482
0.0100696
0.00904195
0.00831735
0.00818388
0.00883744
0.0117817
0.0144815
0.0154845
0.0155264
0.0148791
0.0125611
0.0103364
0.00902273
0.0086109
0.00871541
0.00983565
0.01218
0.0130438
0.0130694
0.0122514
0.0110569
0.00941191
0.00810283
0.00802154
0.00857865
0.0111743
0.0187701
0.0239693
0.0249686
0.023101
0.0220284
0.0336569
0.186029
0.828255
0.565213
0.0828186
0.0476064
0.0444824
0.0455339
0.0481754
0.050671
0.052335
0.0530617
0.0532633
0.0531293
0.0528816
0.0522617
0.052117
0.0522071
0.052764
0.0532461
0.0532234
0.0524614
0.0518171
0.0514013
0.0514151
0.0518967
0.0537125
0.0526221
0.151855
0.092108
0.0489969
0.0450811
0.0485767
0.055571
0.0585252
0.0600949
0.0610608
0.063364
0.0683337
0.0740789
0.0781459
0.082272
0.0905657
0.108593
0.12864
0.145531
0.156773
0.162664
0.165383
0.165837
0.165524
0.164191
0.16033
0.149147
0.131121
0.112517
0.0946429
0.0812543
0.0752185
0.0738806
0.0743716
0.0776682
0.0843518
0.0856715
0.0847463
0.0791846
0.0700024
0.0627137
0.0568175
0.0677708
0.076265
0.0967257
0.109519
0.113718
0.118157
0.120668
0.106362
0.0788518
0.0435092
0.0247795
0.0169557
0.014449
0.0139205
0.0138625
0.0148231
0.0156444
0.0164106
0.017095
0.0173992
0.0176325
0.0177062
0.017565
0.0169362
0.0159905
0.0146823
0.0132381
0.0121865
0.0118929
0.0118945
0.0123542
0.0137888
0.0165904
0.0212989
0.0288812
0.0393622
0.0494548
0.0532952
0.054743
0.0553008
0.0554728
0.0554952
0.0553718
0.0547659
0.0534584
0.0516369
0.0497054
0.0479229
0.0463799
0.0451263
0.0442008
0.0434268
0.0426555
0.0418176
0.040888
0.0396236
0.0380236
0.0361718
0.0339685
0.0316749
0.0298264
0.0281307
0.0266989
0.0254271
0.0242673
0.0231477
0.0219303
0.0204572
0.0185857
0.016126
0.0134161
0.010661
0.00857674
0.00714231
0.00614813
0.00548906
0.0052673
0.00584411
0.00780955
0.00959385
0.0102304
0.0100782
0.00899892
0.00769067
0.00714041
0.00727925
0.00904345
0.0127761
0.014655
0.0149705
0.0145166
0.0120799
0.00866537
0.00661883
0.00601797
0.00614838
0.00729777
0.0103893
0.0114302
0.0113404
0.0110699
0.0101381
0.00910456
0.00879437
0.00888865
0.00935713
0.0111189
0.0159917
0.0186305
0.0184991
0.0190386
0.0373856
0.256088
0.857877
0.422051
0.0625791
0.0488866
0.0501964
0.0499615
0.0516783
0.0538578
0.0550068
0.0555747
0.0557355
0.055029
0.0545144
0.0529175
0.05229
0.0521921
0.0525896
0.0535326
0.0544503
0.0540081
0.0529711
0.0519257
0.0515952
0.0519543
0.0537658
0.108971
0.0758522
0.0366698
0.034139
0.0414239
0.0554751
0.0588664
0.0593604
0.0592751
0.0596501
0.0620041
0.0679512
0.0740958
0.0786589
0.0835051
0.0940176
0.119928
0.1448
0.158491
0.164146
0.166863
0.167618
0.167584
0.166218
0.162125
0.154481
0.142028
0.126865
0.110633
0.0961236
0.0850733
0.0771553
0.0736055
0.0732696
0.0744049
0.0770803
0.0775783
0.0758157
0.067793
0.0620134
0.0577286
0.0581484
0.0679002
0.0661084
0.0827144
0.0879976
0.0856001
0.0772485
0.063364
0.0455104
0.0314338
0.0208212
0.016206
0.0145253
0.0141372
0.0141848
0.0151792
0.0162311
0.0168136
0.0172108
0.0173747
0.0174201
0.0173592
0.0170443
0.0163682
0.0151359
0.0135103
0.0118075
0.010812
0.010567
0.0106858
0.0114496
0.0128358
0.0149981
0.0187075
0.0244997
0.0319335
0.0402342
0.0483669
0.0524304
0.0539364
0.054687
0.0551928
0.0552664
0.0547209
0.052716
0.0490128
0.0443114
0.0395687
0.0352623
0.0321514
0.0302113
0.0293921
0.0291488
0.029314
0.0300497
0.0311599
0.0320736
0.0324162
0.0324218
0.0317292
0.0302504
0.029006
0.0278237
0.0267137
0.0256501
0.024658
0.0237501
0.0229144
0.0220005
0.0208138
0.0194942
0.0180715
0.0163442
0.0136024
0.0102247
0.00752204
0.00566241
0.00450249
0.00385795
0.00372524
0.00451205
0.00711413
0.00894833
0.00928568
0.00875774
0.00720446
0.00629443
0.00622644
0.00718566
0.0107533
0.0130965
0.0134972
0.0129075
0.00986403
0.0068357
0.00594231
0.00592363
0.00623731
0.00803542
0.01039
0.0110965
0.0112033
0.0110239
0.0100108
0.0090832
0.00893924
0.00902343
0.00952717
0.0120872
0.0152019
0.0157657
0.0173571
0.0417754
0.330165
0.823744
0.334141
0.0558024
0.0524788
0.0535267
0.052457
0.0548647
0.0569051
0.0593616
0.061028
0.061594
0.0603545
0.0586699
0.0551105
0.0530797
0.0522646
0.0522271
0.0531443
0.0547044
0.0553854
0.0546904
0.052738
0.0514927
0.0515412
0.0528613
0.0375472
0.0442936
0.0271113
0.0329184
0.0520309
0.0591145
0.0601217
0.0599568
0.060626
0.0631231
0.0691984
0.0757289
0.0805261
0.0846307
0.0903579
0.106335
0.134627
0.152251
0.162212
0.163513
0.162335
0.157904
0.15009
0.144018
0.136813
0.129123
0.121692
0.112647
0.102684
0.0919883
0.0828842
0.0759848
0.0725775
0.0720481
0.072756
0.0739011
0.0724661
0.0654051
0.0591604
0.0564132
0.0554702
0.0637216
0.0627043
0.0555433
0.0582191
0.0579153
0.0493112
0.0416151
0.0322215
0.0222718
0.0175968
0.0150336
0.0140464
0.0137639
0.0137123
0.0140738
0.014968
0.0156461
0.015872
0.0158685
0.0153533
0.0147244
0.0138074
0.0128985
0.0119055
0.0110256
0.0104507
0.010113
0.0100232
0.0101361
0.0107006
0.0116627
0.0133325
0.0157367
0.0191592
0.0241356
0.0304521
0.0372786
0.043455
0.047904
0.05069
0.0535295
0.0552954
0.0554044
0.0536034
0.0485653
0.0405632
0.0313167
0.0244237
0.0210713
0.0190857
0.0174668
0.0161278
0.0149356
0.0139657
0.0133981
0.0134986
0.0145462
0.0165284
0.0190479
0.0212401
0.0221598
0.0226405
0.0232413
0.0238335
0.0240442
0.0239281
0.0235605
0.0230319
0.0224097
0.0216511
0.0205199
0.0192799
0.0182126
0.0172344
0.0155485
0.0121735
0.00867338
0.00590943
0.00408654
0.00313681
0.00279654
0.00303884
0.00492665
0.00745848
0.0082301
0.00799417
0.00662833
0.00552161
0.00537187
0.00610499
0.00917911
0.0111365
0.0112896
0.0101962
0.00779661
0.00660746
0.00642502
0.00660936
0.00783241
0.0105067
0.0117007
0.0118972
0.0117827
0.0109441
0.00965779
0.0091574
0.0091445
0.00933285
0.0106522
0.0127814
0.0135957
0.016107
0.0457481
0.381555
0.731337
0.276912
0.0565254
0.0564071
0.0547799
0.0550374
0.0587591
0.0632942
0.0676487
0.0699428
0.0708236
0.0694014
0.066343
0.0611693
0.0559929
0.0530875
0.0522865
0.0527603
0.0544827
0.0560429
0.0559769
0.0544603
0.0514736
0.0504412
0.0510421
0.0309327
0.0482712
0.0234254
0.0414323
0.0568343
0.0603006
0.0623521
0.0661351
0.0713998
0.0787387
0.0843315
0.087276
0.0881587
0.0900244
0.097552
0.117485
0.140099
0.148251
0.147092
0.136268
0.123199
0.115865
0.111049
0.1072
0.103681
0.100758
0.0972171
0.09293
0.088042
0.0826913
0.0770734
0.0727891
0.0706837
0.0704038
0.0703666
0.0688509
0.0627904
0.0562154
0.0531334
0.0541486
0.0568195
0.0673257
0.0572079
0.0472212
0.0451182
0.0389935
0.0298161
0.0254562
0.0199551
0.0151239
0.0132439
0.0123507
0.012072
0.0120514
0.0122692
0.0126541
0.0128647
0.012909
0.0129029
0.0128116
0.0126607
0.012427
0.0120777
0.011715
0.0113914
0.0111171
0.0109901
0.0110211
0.0112861
0.0117151
0.0124587
0.0136309
0.0153288
0.0177282
0.0208023
0.024763
0.029747
0.0351057
0.0402512
0.045003
0.0500784
0.0553131
0.0565088
0.0552681
0.0501446
0.0400979
0.0276641
0.0216382
0.0194656
0.0182272
0.0170662
0.0158584
0.0145459
0.0130994
0.011565
0.0100696
0.00880055
0.00785606
0.00742155
0.00782045
0.00918806
0.0116187
0.0138564
0.0156231
0.0171632
0.01877
0.0200678
0.0210473
0.0218302
0.0221045
0.0219138
0.0213134
0.0201571
0.0190108
0.0183123
0.017643
0.0162645
0.0131441
0.00945361
0.00619357
0.00388942
0.00267686
0.00226128
0.00236593
0.0037337
0.00627092
0.00715896
0.00703725
0.00585223
0.00475133
0.00461803
0.00531651
0.00792747
0.00932522
0.00938018
0.00868602
0.00714855
0.00647521
0.00660243
0.00770431
0.0108939
0.0127473
0.0131139
0.0130124
0.0124007
0.010881
0.00988219
0.00959278
0.00960787
0.0100437
0.0110676
0.0119814
0.0151779
0.0486315
0.40117
0.667201
0.265056
0.0590909
0.0583904
0.0556727
0.0583672
0.0651048
0.0722231
0.0772726
0.079582
0.0803057
0.078556
0.0751297
0.0697455
0.0619182
0.0557824
0.0530524
0.0528216
0.0540027
0.0566166
0.0570817
0.0563506
0.0524675
0.0494014
0.049145
0.0376226
0.0526122
0.0168724
0.0492723
0.0602086
0.0641405
0.071743
0.0817097
0.0908092
0.0951423
0.0960134
0.0936887
0.0913335
0.0920226
0.10183
0.120347
0.124464
0.123322
0.114455
0.0996572
0.0916195
0.087568
0.0856096
0.084013
0.0833215
0.0829826
0.0823527
0.0805171
0.0776741
0.0738751
0.0710801
0.069218
0.0679694
0.0668502
0.0641123
0.0585815
0.0529364
0.0501121
0.0500113
0.052543
0.0597678
0.0704592
0.0520829
0.042071
0.0379976
0.0296076
0.0216233
0.0183605
0.015228
0.0128786
0.0119086
0.0110661
0.0107971
0.0107721
0.0108575
0.0111024
0.0114507
0.0118604
0.0123007
0.0126655
0.012906
0.0132165
0.0136592
0.014394
0.0156205
0.0174438
0.0196419
0.0218691
0.0238121
0.0251097
0.0259792
0.0267358
0.0274545
0.0286471
0.030704
0.0336664
0.0374981
0.042161
0.047396
0.0531979
0.0576469
0.058395
0.0568814
0.0516598
0.0407108
0.0262125
0.0211172
0.0199014
0.0193447
0.0192518
0.0193417
0.0192057
0.0185479
0.0170582
0.0149168
0.0123224
0.00973903
0.00771688
0.00636102
0.00563473
0.00548662
0.0068724
0.0100506
0.0124496
0.0141442
0.0155411
0.0168445
0.0178476
0.0186842
0.0199199
0.0210957
0.0213961
0.0211875
0.0203984
0.0194742
0.0187801
0.0180155
0.0163051
0.0131403
0.00946748
0.00606534
0.00359585
0.00229745
0.00188803
0.00198336
0.00321659
0.00544304
0.00618959
0.00606551
0.00495114
0.00398784
0.00391483
0.00461813
0.00669655
0.00756649
0.00756535
0.00715871
0.00642073
0.00627754
0.00699333
0.0102265
0.0131932
0.014084
0.0140823
0.0136273
0.0120432
0.0106093
0.0100354
0.00990944
0.00997262
0.0102911
0.0110674
0.0145131
0.0488008
0.399844
0.622353
0.269053
0.0639419
0.0589775
0.0568444
0.0629553
0.0731788
0.0807126
0.0848947
0.0864097
0.0859791
0.0841478
0.0811784
0.0768226
0.0690467
0.0604531
0.0547579
0.0534787
0.0539944
0.056695
0.0580574
0.0577182
0.0543284
0.0492859
0.0479608
0.0408705
0.054115
0.0128546
0.0588429
0.0643345
0.073244
0.0876414
0.100992
0.105465
0.104892
0.100703
0.0945094
0.0916895
0.092279
0.0983677
0.104536
0.105249
0.101188
0.0892368
0.0799644
0.0762767
0.0736489
0.0723503
0.0716893
0.0712495
0.0712153
0.0712121
0.0706636
0.0694837
0.0683335
0.0665261
0.0643025
0.0617035
0.0576616
0.05313
0.0493533
0.0474815
0.0469955
0.0487292
0.0524204
0.0626431
0.0750861
0.0504285
0.040513
0.0361469
0.0281381
0.0200106
0.0165992
0.0140563
0.0124621
0.0117085
0.0107901
0.0104613
0.0104324
0.0105491
0.0109146
0.0114626
0.012172
0.0131646
0.0145325
0.0165789
0.0196945
0.02453
0.0301295
0.0356994
0.0406549
0.044257
0.0467267
0.0481326
0.0490674
0.049594
0.0499659
0.0503219
0.0507857
0.0514438
0.0522582
0.0532833
0.0546197
0.0561186
0.0567385
0.0560256
0.0527592
0.0473842
0.0382859
0.0252245
0.0202156
0.0199697
0.0206288
0.0232858
0.0269179
0.0294983
0.0306754
0.031068
0.029722
0.0272871
0.0235362
0.0182458
0.0128569
0.00870054
0.00615508
0.0049879
0.00464901
0.00548205
0.0084164
0.0114877
0.0136732
0.0154255
0.0167269
0.0174695
0.0180138
0.0190858
0.0204596
0.0211243
0.0212684
0.0212108
0.020819
0.0199836
0.0185101
0.0160054
0.0126492
0.00891577
0.00553533
0.00314107
0.00193669
0.00160061
0.00173922
0.00301986
0.00481143
0.00531334
0.00512625
0.00402077
0.00325504
0.00323967
0.00393201
0.00537184
0.00582933
0.00584033
0.00587755
0.00588864
0.00618591
0.00849598
0.0124787
0.0141488
0.0143677
0.0140487
0.0125518
0.0108607
0.0101494
0.00995911
0.00996031
0.010084
0.0106342
0.0140035
0.0472618
0.381316
0.581311
0.281207
0.0715239
0.0592885
0.0594179
0.0678908
0.0799478
0.0870752
0.0895304
0.0898427
0.0887484
0.0867542
0.0838412
0.0801036
0.0745792
0.0653516
0.0573888
0.0546182
0.0545272
0.0567043
0.0590155
0.0589038
0.0562386
0.0494956
0.0472233
0.0451984
0.0542985
0.0118312
0.0626886
0.0681254
0.0825249
0.101287
0.111655
0.112777
0.109023
0.100831
0.0917879
0.0884687
0.0882212
0.0894957
0.0900074
0.0882133
0.0809527
0.0720866
0.0689573
0.0674239
0.0656419
0.0641493
0.0637404
0.0635936
0.06348
0.0629415
0.0619558
0.0603165
0.0579593
0.0555037
0.0526409
0.050115
0.0481074
0.0469173
0.0464221
0.0465434
0.0475905
0.0503756
0.0559718
0.0690957
0.0816493
0.0510596
0.040675
0.0363479
0.0287124
0.0203788
0.0167343
0.0141581
0.012615
0.0118797
0.0109372
0.0105592
0.0105249
0.010705
0.0113232
0.0125221
0.014513
0.0177805
0.023498
0.0306202
0.0376509
0.0433848
0.0474574
0.0500009
0.051214
0.0516133
0.0509861
0.0502304
0.0495494
0.0490811
0.0487274
0.0484294
0.0481146
0.0480319
0.047991
0.0480247
0.0480851
0.0469111
0.0440232
0.0402613
0.036348
0.0315652
0.0244989
0.0191678
0.0190718
0.0210184
0.0262258
0.0348838
0.0416461
0.0441383
0.0443776
0.0421013
0.0390768
0.036567
0.0344755
0.0320176
0.0265802
0.0181606
0.0111169
0.00674669
0.00457134
0.00371106
0.00364366
0.00526804
0.00892462
0.0123682
0.0149742
0.016575
0.0173777
0.018079
0.0191943
0.0204013
0.0212005
0.0215555
0.0216353
0.0215376
0.0210209
0.0193969
0.016064
0.012009
0.00807756
0.00478436
0.00260709
0.00160306
0.00137325
0.00158145
0.00292485
0.00423094
0.00449883
0.00422202
0.00313963
0.00257604
0.00258959
0.00315972
0.00394115
0.00416854
0.00435179
0.00458301
0.00506797
0.00693309
0.0112464
0.0136354
0.0141499
0.0139109
0.012501
0.0107909
0.0100814
0.00991077
0.0099075
0.00998279
0.0104293
0.0136028
0.044038
0.33978
0.544674
0.30481
0.0826952
0.0601495
0.0616275
0.0717993
0.0840637
0.090262
0.0922285
0.0917365
0.0908725
0.0890074
0.0856282
0.0816563
0.0774625
0.069108
0.0604317
0.055951
0.0554645
0.0570933
0.0603731
0.0604343
0.057977
0.0497376
0.0458619
0.0468556
0.0537534
0.0170553
0.0637407
0.0701369
0.0883928
0.110241
0.117427
0.116448
0.109567
0.0975278
0.0853024
0.0802225
0.0784945
0.0776948
0.0764279
0.0729727
0.0674701
0.0633283
0.0616359
0.0603422
0.0585612
0.0571291
0.0561259
0.0543919
0.0522848
0.0509508
0.0496167
0.0487301
0.048364
0.0480969
0.0476692
0.0475021
0.0474508
0.0474957
0.0483136
0.050305
0.0535422
0.0583788
0.0659688
0.0854332
0.0904776
0.052737
0.0415552
0.0374659
0.0303959
0.0218919
0.0177638
0.0149714
0.0134156
0.0127434
0.0119413
0.0114536
0.0113801
0.0117076
0.0131791
0.0167456
0.0235456
0.0309001
0.0380396
0.0444759
0.0494184
0.0521653
0.0535525
0.0540618
0.0533023
0.05151
0.0481918
0.0445786
0.041319
0.0383272
0.0361974
0.034725
0.0339143
0.0335189
0.0329864
0.0324206
0.0318559
0.0309784
0.0302287
0.0294473
0.0278709
0.0244664
0.0193531
0.0174153
0.0194317
0.0257086
0.0387006
0.0508065
0.0550901
0.056035
0.0524016
0.0472783
0.0430435
0.0396704
0.037359
0.0359743
0.03466
0.0315121
0.0231834
0.0136188
0.00752627
0.00427351
0.00292694
0.00251364
0.00297602
0.00566258
0.0101307
0.0136565
0.0159007
0.0173246
0.0184941
0.0196891
0.0207432
0.0214357
0.0217041
0.0217194
0.0215648
0.0209077
0.0190208
0.0156213
0.011144
0.00706983
0.00395891
0.0020854
0.00131888
0.00119507
0.00148844
0.00279476
0.00363133
0.00372796
0.00335021
0.00236647
0.00196323
0.00197125
0.00230179
0.00264445
0.00279676
0.00306894
0.00364033
0.00542355
0.00965134
0.0124881
0.0134039
0.0133097
0.0121319
0.0104408
0.00978838
0.00969994
0.00973904
0.00987302
0.0103396
0.013242
0.0389732
0.290269
0.510646
0.337451
0.100278
0.0624697