/*--------------------------------*- C++ -*----------------------------------*\
  =========                 |
  \\      /  F ield         | OpenFOAM: The Open Source CFD Toolbox
   \\    /   O peration     | Website:  https://openfoam.org
    \\  /    A nd           | Version:  6
     \\/     M anipulation  |
\*---------------------------------------------------------------------------*/
FoamFile
{
    version     2.0;
    format      ascii;
    class       volScalarField;
    location    "0.25";
    object      p;
}
// * * * * * * * * * * * * * * * * * * * * * * * * * * * * * * * * * * * * * //

dimensions      [0 2 -2 0 0 0 0];

internalField   nonuniform List<scalar> 
12225
(
972.213
977.815
977.719
974.87
970.611
965.556
960.076
954.379
948.566
942.723
936.952
931.338
925.893
920.603
915.384
910.133
904.546
897.883
972.57
978.04
977.817
974.927
970.66
965.597
960.1
954.386
948.564
942.719
936.945
931.318
925.858
920.541
915.297
910.008
904.428
897.994
974.027
978.525
978.112
975.134
970.796
965.685
960.153
954.414
948.582
942.739
936.969
931.333
925.845
920.477
915.164
909.789
904.159
897.953
976.493
979.42
978.6
975.44
970.989
965.818
960.253
954.486
948.636
942.786
937.006
931.348
925.821
920.397
915.014
909.569
903.925
897.942
980.145
980.606
979.304
975.921
971.312
966.036
960.399
954.584
948.708
942.842
937.045
931.359
925.797
920.332
914.903
909.429
903.82
898.043
981.266
981.984
980.204
976.519
971.721
966.336
960.625
954.75
948.829
942.934
937.117
931.412
925.822
920.318
914.848
909.358
903.803
898.21
984.184
983.807
981.412
977.329
972.261
966.706
960.893
954.955
948.991
943.063
937.216
931.478
925.853
920.317
914.828
909.353
903.878
898.444
985.526
985.96
982.967
978.337
972.945
967.193
961.245
955.212
949.187
943.221
937.346
931.582
925.934
920.379
914.888
909.44
904.04
898.723
987.085
988.518
984.773
979.542
973.775
967.788
961.69
955.559
949.466
943.451
937.536
931.736
926.053
920.474
914.98
909.564
904.233
899.013
994.789
992.162
986.899
980.925
974.746
968.494
962.206
955.94
949.756
943.684
937.732
931.907
926.215
920.643
915.173
909.797
904.523
899.371
1005.31
996.484
989.415
982.565
975.863
969.299
962.822
956.44
950.18
944.053
938.055
932.187
926.457
920.86
915.387
910.036
904.814
899.735
1012.84
1000.39
991.856
984.224
977.053
970.176
963.476
956.935
950.563
944.36
938.315
932.43
926.707
921.138
915.705
910.4
905.227
900.193
1018.27
1004.05
994.206
985.871
978.239
971.047
964.149
957.491
951.045
944.788
938.699
932.775
927.021
921.433
916
910.717
905.587
900.614
1022.02
1007.65
996.813
987.73
979.646
972.162
965.053
958.225
951.646
945.297
939.157
933.212
927.461
921.891
916.486
911.239
906.151
901.227
1025.12
1010.88
999.555
989.971
981.382
973.459
966.056
959.05
952.359
945.939
939.748
933.77
927.999
922.428
917.047
911.849
906.829
901.984
1025.8
1013.42
1002.04
992.071
983.167
974.962
967.317
960.105
953.261
946.743
940.502
934.505
928.736
923.182
917.83
912.675
907.712
902.939
1028.81
1016.26
1004.46
994.083
984.767
976.318
968.543
961.246
954.333
947.753
941.461
935.432
929.655
924.12
918.809
913.71
908.817
904.122
1035.73
1018.68
1006.17
995.818
986.436
977.861
969.927
962.47
955.436
948.788
942.476
936.463
930.723
925.238
919.99
914.968
910.162
905.564
1028.47
1016.31
1005.7
996.054
987.089
978.734
970.915
963.562
956.611
950.003
943.705
937.704
931.984
926.526
921.317
916.347
911.611
907.097
1016.22
1011.95
1003.98
995.6
987.366
979.343
971.631
964.325
957.412
950.828
944.554
938.595
932.938
927.555
922.425
917.536
912.877
908.438
1019.73
1012.5
1004.2
995.722
987.488
979.544
971.915
964.691
957.868
951.375
945.174
939.261
933.631
928.266
923.152
918.282
913.649
909.242
1023.58
1014.16
1004.68
995.841
987.603
979.794
972.263
965.067
958.244
951.755
945.568
939.679
934.08
928.754
923.685
918.86
914.267
909.895
1030.85
1016.12
1005.35
996.114
987.699
979.826
972.321
965.184
958.425
951.993
945.849
939.99
934.415
929.112
924.064
919.258
914.682
910.326
1031.09
1015.77
1005.09
995.914
987.588
979.846
972.44
965.332
958.577
952.163
946.052
940.222
934.668
929.378
924.342
919.548
914.985
910.643
1027.09
1014.02
1004.4
995.666
987.479
979.812
972.489
965.441
958.706
952.294
946.185
940.365
934.825
929.552
924.531
919.75
915.198
910.865
1016.8
1011.63
1003.55
995.356
987.36
979.752
972.465
965.445
958.734
952.348
946.266
940.47
934.947
929.686
924.672
919.896
915.348
911.018
1014.88
1010.16
1002.92
995.061
987.237
979.728
972.495
965.5
958.793
952.406
946.326
940.529
935.001
929.735
924.723
919.954
915.415
911.094
1014.99
1009.47
1002.53
994.903
987.168
979.695
972.497
965.522
958.813
952.423
946.355
940.578
935.068
929.813
924.808
920.043
915.506
911.186
1013.94
1008.92
1002.25
994.784
987.143
979.69
972.482
965.507
958.809
952.432
946.373
940.599
935.087
929.828
924.818
920.053
915.521
911.21
1013.28
1008.83
1002.18
994.729
987.119
979.705
972.52
965.545
958.834
952.444
946.379
940.606
935.097
929.841
924.834
920.071
915.54
911.228
806.456
806.366
806.237
806.074
805.855
805.633
805.485
805.427
805.425
805.405
805.276
804.942
804.329
803.407
802.211
800.814
799.306
797.775
796.303
794.967
793.829
792.939
792.319
791.958
791.82
791.848
791.959
792.046
791.977
791.595
790.787
789.627
788.28
786.911
785.637
784.442
783.265
782.13
781.029
779.926
778.788
777.586
776.201
774.484
772.258
769.808
767.464
765.176
763.221
761.875
761.031
760.284
759.529
758.633
757.032
755.321
753.419
750.656
746.703
741.953
736.645
731.002
725.17
719.255
713.325
707.426
701.592
695.842
690.193
684.65
679.215
673.878
668.625
663.441
658.311
653.225
648.174
643.169
638.269
633.639
629.548
626.268
623.991
622.88
622.934
623.887
625.475
627.508
629.802
632.224
634.685
637.115
639.464
641.688
643.743
645.583
647.166
648.449
649.394
649.969
650.153
649.935
649.313
648.294
646.898
645.148
643.076
640.717
638.108
635.288
632.293
629.158
625.91
622.576
619.175
615.72
612.215
608.661
605.052
601.382
597.647
593.844
589.974
586.04
582.049
578.01
573.932
569.82
565.685
561.532
557.354
553.153
548.962
544.781
540.576
536.391
532.341
528.38
524.104
519.066
513.566
508.585
504.535
500.851
496.908
492.593
488.076
483.535
479.106
474.859
470.672
466.254
461.535
456.842
452.461
448.156
443.362
437.286
428.445
416.651
402.992
388.955
375.514
363.412
353.254
345.456
340.205
337.445
336.873
337.98
340.122
342.58
344.668
345.862
345.858
344.525
341.98
338.296
333.816
328.838
806.367
806.287
806.175
806.044
805.891
805.717
805.54
805.368
805.184
804.931
804.54
803.947
803.111
802.026
800.729
799.283
797.763
796.246
794.805
793.509
792.414
791.561
790.966
790.622
790.494
790.528
790.645
790.746
790.724
790.455
789.836
788.956
788.004
786.928
785.73
784.546
783.379
782.204
781.025
779.86
778.642
777.332
775.817
773.924
771.585
768.767
765.909
763.202
761.129
760.037
759.464
758.987
758.812
759.009
757.989
755.385
752.541
749.176
745.022
740.247
735.028
729.502
723.796
717.99
712.16
706.347
700.596
694.934
689.387
683.962
678.654
673.441
668.287
663.144
657.967
652.716
647.377
641.993
636.703
631.774
627.566
624.411
622.475
621.671
621.843
622.89
624.601
626.719
629.071
631.535
634.024
636.481
638.861
641.121
643.22
645.109
646.743
648.077
649.071
649.692
649.917
649.735
649.143
648.151
646.775
645.041
642.98
640.627
638.021
635.2
632.203
629.063
625.813
622.477
619.075
615.622
612.123
608.576
604.977
601.317
597.592
593.799
589.937
586.011
582.026
577.991
573.914
569.804
565.671
561.52
557.34
553.136
548.946
544.771
540.576
536.37
532.223
528.174
523.823
518.716
513.336
508.565
504.608
500.921
496.964
492.632
488.087
483.516
479.059
474.821
470.694
466.304
461.55
456.851
452.447
448.161
443.533
437.173
427.708
415.53
401.964
388.055
374.683
362.616
352.49
344.732
339.535
336.834
336.319
337.485
339.683
342.195
344.328
345.555
345.57
344.258
341.725
338.058
333.563
328.51
806.564
806.525
806.475
806.405
806.287
806.084
805.759
805.305
804.726
804.017
803.159
802.135
800.942
799.595
798.123
796.571
794.989
793.435
791.97
790.65
789.529
788.65
788.041
787.708
787.62
787.72
787.931
788.166
788.344
788.395
788.277
787.995
787.555
786.895
786.041
785.115
784.104
782.969
781.811
780.637
779.297
777.682
775.839
773.4
770.293
766.691
763.026
759.901
757.619
756.301
756.215
757.246
757.899
757.361
755.762
753.048
749.732
745.952
741.74
737.1
732.111
726.834
721.369
715.773
710.119
704.458
698.85
693.334
687.937
682.663
677.5
672.414
667.357
662.261
657.055
651.671
646.078
640.327
634.612
629.287
624.797
621.524
619.652
619.104
619.634
620.981
622.91
625.194
627.655
630.184
632.722
635.226
637.662
639.994
642.177
644.163
645.898
647.332
648.423
649.133
649.439
649.328
648.798
647.856
646.522
644.821
642.784
640.446
637.847
635.027
632.025
628.878
625.619
622.275
618.871
615.421
611.93
608.396
604.814
601.174
597.469
593.695
589.85
585.939
581.967
577.941
573.873
569.769
565.638
561.484
557.308
553.115
548.919
544.721
540.507
536.287
532.096
527.895
523.436
518.557
513.612
509.052
504.941
500.973
496.839
492.474
487.994
483.507
479.068
474.8
470.666
466.297
461.58
456.944
452.534
448.222
443.481
436.228
425.889
413.586
400.259
386.515
373.217
361.189
351.097
343.386
338.257
335.647
335.236
336.509
338.812
341.421
343.641
344.935
344.991
343.723
341.205
337.574
333.055
327.905
806.98
806.952
806.901
806.784
806.528
806.055
805.355
804.479
803.482
802.394
801.223
799.962
798.607
797.157
795.625
794.032
792.417
790.828
789.319
787.947
786.764
785.811
785.118
784.707
784.577
784.691
784.987
785.389
785.827
786.236
786.57
786.797
786.888
786.824
786.599
786.198
785.597
784.799
783.858
782.705
781.313
779.511
777.154
774.109
770.098
765.619
761.148
757.596
755.388
754.115
753.814
754.297
754.436
753.609
751.807
749.192
745.971
742.262
738.147
733.662
728.862
723.793
718.518
713.097
707.606
702.112
696.674
691.33
686.103
680.993
675.979
671.014
666.028
660.933
655.628
650.019
644.053
637.794
631.515
625.717
620.988
617.753
616.115
615.897
616.8
618.508
620.722
623.191
625.757
628.343
630.92
633.472
635.976
638.403
640.704
642.824
644.7
646.276
647.501
648.336
648.754
648.74
648.294
647.424
646.149
644.494
642.493
640.18
637.596
634.781
631.775
628.617
625.343
621.987
618.574
615.124
611.642
608.126
604.568
600.955
597.279
593.531
589.712
585.823
581.87
577.86
573.803
569.708
565.584
561.437
557.266
553.07
548.858
544.647
540.432
536.191
531.934
527.67
523.288
518.676
513.958
509.365
505.035
500.874
496.673
492.339
487.924
483.483
479.074
474.826
470.692
466.324
461.639
457.039
452.631
448.304
443.032
434.539
423.635
411.425
398.172
384.457
371.161
359.149
349.09
341.434
336.389
333.898
333.632
335.057
337.506
340.255
342.611
344.02
344.148
342.946
340.453
336.863
332.331
327.108
807.45
807.435
807.291
806.92
806.276
805.411
804.416
803.351
802.231
801.047
799.793
798.462
797.051
795.557
793.984
792.348
790.68
789.031
787.459
786.024
784.782
783.781
783.053
782.614
782.464
782.583
782.928
783.435
784.036
784.667
785.286
785.868
786.402
786.875
787.253
787.458
787.424
787.092
786.47
785.545
784.29
782.576
779.978
776.556
772.299
767.598
763.034
759.144
756.501
754.816
753.802
753.097
752.179
750.691
748.544
745.817
742.584
738.898
734.815
730.385
725.65
720.658
715.469
710.158
704.8
699.458
694.185
689.015
683.967
679.032
674.173
669.325
664.396
659.272
653.821
647.916
641.491
634.654
627.802
621.612
616.8
613.786
612.54
612.742
614.015
616.021
618.444
621.028
623.629
626.211
628.786
631.365
633.94
636.481
638.932
641.222
643.276
645.025
646.41
647.389
647.932
648.027
647.674
646.882
645.672
644.071
642.111
639.829
637.265
634.46
631.454
628.288
625
621.628
618.203
614.748
611.272
607.775
604.245
600.667
597.027
593.315
589.528
585.667
581.738
577.748
573.706
569.623
565.507
561.364
557.193
552.999
548.791
544.575
540.341
536.083
531.817
527.552
523.205
518.661
513.974
509.375
505.028
500.834
496.593
492.238
487.822
483.414
479.056
474.814
470.656
466.282
461.622
457.059
452.702
448.281
442.191
432.659
421.413
409.15
395.71
381.879
368.524
356.511
346.487
338.895
333.949
331.602
331.518
333.139
335.778
338.711
341.251
342.826
343.075
341.962
339.519
335.97
331.444
326.183
808.177
808.053
807.611
806.818
805.849
804.831
803.77
802.645
801.453
800.199
798.88
797.493
796.03
794.486
792.863
791.176
789.461
787.77
786.163
784.699
783.433
782.418
781.694
781.282
781.177
781.354
781.77
782.365
783.074
783.844
784.641
785.457
786.291
787.129
787.937
788.627
789.086
789.203
788.913
788.248
787.184
785.61
783.279
780.055
776.175
771.893
767.705
763.925
760.817
758.289
756.126
754.077
751.912
749.469
746.681
743.528
740.006
736.121
731.896
727.363
722.562
717.549
712.388
707.149
701.894
696.678
691.548
686.536
681.647
676.859
672.122
667.357
662.462
657.305
651.73
645.59
638.824
631.603
624.438
618.117
613.388
610.613
609.673
610.186
611.726
613.911
616.399
618.945
621.444
623.915
626.418
628.995
631.645
634.326
636.964
639.466
641.735
643.688
645.258
646.395
647.071
647.275
647.012
646.296
645.149
643.597
641.675
639.42
636.871
634.072
631.065
627.89
624.589
621.204
617.769
614.311
610.842
607.362
603.86
600.319
596.721
593.051
589.303
585.476
581.576
577.611
573.588
569.518
565.411
561.274
557.109
552.919
548.708
544.481
540.242
535.99
531.722
527.424
523.037
518.511
513.919
509.423
505.083
500.812
496.504
492.13
487.719
483.312
478.944
474.691
470.526
466.154
461.545
457.038
452.733
448.131
441.105
430.839
419.227
406.643
392.86
378.831
365.391
353.379
343.403
335.891
331.059
328.872
328.997
330.847
333.707
336.852
339.612
341.39
341.806
340.805
338.438
334.932
330.432
325.161
808.923
808.513
807.644
806.587
805.539
804.494
803.389
802.191
800.905
799.56
798.178
796.767
795.314
793.793
792.194
790.531
788.846
787.197
785.641
784.228
783.006
782.02
781.312
780.914
780.83
781.034
781.482
782.114
782.87
783.706
784.598
785.546
786.553
787.607
788.672
789.652
790.41
790.799
790.736
790.266
789.397
787.967
785.918
783.231
779.909
776.115
772.175
768.381
764.856
761.603
758.526
755.497
752.403
749.161
745.722
742.042
738.1
733.883
729.397
724.665
719.727
714.635
709.444
704.217
699.007
693.87
688.846
683.953
679.181
674.501
669.857
665.171
660.334
655.204
649.612
643.411
636.569
629.308
622.188
615.998
611.445
608.841
608.049
608.683
610.292
612.449
614.787
617.082
619.294
621.516
623.864
626.405
629.13
631.976
634.834
637.583
640.102
642.288
644.064
645.377
646.195
646.513
646.341
645.701
644.616
643.114
641.23
638.999
636.46
633.655
630.632
627.437
624.114
620.709
617.262
613.804
610.349
606.895
603.427
599.926
596.372
592.748
589.043
585.255
581.389
577.451
573.451
569.397
565.3
561.17
557.011
552.824
548.615
544.392
540.155
535.893
531.596
527.262
522.878
518.424
513.926
509.455
505.063
500.732
496.396
492.014
487.596
483.176
478.799
474.53
470.331
465.954
461.397
456.912
452.634
447.83
439.897
429.002
416.961
403.891
389.72
375.482
361.98
349.986
340.065
332.628
327.901
325.87
326.211
328.312
331.412
334.779
337.769
339.77
340.379
339.506
337.236
333.778
329.31
324.05
808.864
808.307
807.379
806.392
805.4
804.329
803.129
801.823
800.462
799.099
797.758
796.434
795.088
793.672
792.164
790.581
788.978
787.42
785.962
784.648
783.514
782.598
781.934
781.549
781.451
781.622
782.028
782.62
783.353
784.189
785.116
786.133
787.236
788.407
789.59
790.67
791.507
791.97
791.992
791.626
790.835
789.544
787.731
785.343
782.29
778.716
774.936
771.137
767.372
763.705
760.109
756.517
752.859
749.074
745.126
740.983
736.624
732.043
727.248
722.262
717.123
711.878
706.58
701.291
696.068
690.959
685.994
681.181
676.509
671.947
667.438
662.896
658.202
653.205
647.746
641.701
635.075
628.115
621.355
615.506
611.187
608.674
607.859
608.395
609.838
611.726
613.671
615.487
617.219
619.051
621.155
623.615
626.409
629.436
632.547
635.579
638.383
640.832
642.837
644.339
645.309
645.741
645.652
645.075
644.047
642.597
640.758
638.565
636.049
633.245
630.202
626.972
623.606
620.157
616.676
613.206
609.767
606.352
602.935
599.488
595.987
592.414
588.757
585.011
581.181
577.273
573.298
569.263
565.179
561.056
556.903
552.723
548.519
544.295
540.047
535.769
531.466
527.139
522.776
518.353
513.873
509.393
504.981
500.63
496.279
491.89
487.47
483.045
478.645
474.323
470.063
465.677
461.154
456.672
452.401
447.382
438.635
427.086
414.605
401.01
386.483
372.078
358.542
346.554
336.65
329.242
324.585
322.694
323.255
325.633
329
332.596
335.803
338.029
338.839
338.101
335.932
332.532
328.098
322.862
808.424
807.964
807.235
806.377
805.386
804.238
802.96
801.612
800.262
798.966
797.745
796.573
795.384
794.112
792.726
791.255
789.764
788.317
786.967
785.753
784.707
783.858
783.233
782.852
782.72
782.832
783.167
783.699
784.395
785.232
786.194
787.272
788.447
789.678
790.878
791.927
792.695
793.084
793.053
792.672
791.859
790.627
788.932
786.632
783.653
780.151
776.463
772.71
768.889
765.06
761.205
757.285
753.258
749.083
744.735
740.193
735.444
730.488
725.34
720.027
714.588
709.078
703.563
698.115
692.799
687.669
682.757
678.071
673.591
669.268
665.017
660.727
656.265
651.49
646.27
640.53
634.315
627.873
621.665
616.276
612.216
609.735
608.782
609.081
610.2
611.642
613
614.133
615.19
616.46
618.191
620.502
623.357
626.604
630.032
633.421
636.58
639.353
641.632
643.354
644.491
645.041
645.024
644.483
643.472
642.039
640.223
638.064
635.59
632.821
629.783
626.524
623.104
619.589
616.045
612.533
609.089
605.709
602.357
598.986
595.559
592.05
588.448
584.75
580.958
577.082
573.132
569.117
565.048
560.935
556.789
552.614
548.413
544.186
539.934
535.658
531.358
527.03
522.661
518.241
513.778
509.311
504.892
500.524
496.162
491.768
487.337
482.888
478.449
474.074
469.76
465.35
460.825
456.313
452.03
446.796
437.354
425.158
412.253
398.163
383.344
368.815
355.235
343.196
333.242
325.812
321.188
319.411
320.19
322.869
326.545
330.387
333.798
336.23
337.228
336.626
334.552
331.211
326.811
321.61
808.469
808.086
807.453
806.659
805.668
804.498
803.22
801.903
800.616
799.417
798.315
797.272
796.208
795.05
793.775
792.419
791.045
789.709
788.454
787.316
786.326
785.508
784.885
784.48
784.306
784.37
784.671
785.196
785.921
786.818
787.863
789.031
790.278
791.533
792.692
793.636
794.256
794.503
794.363
793.884
793.028
791.784
790.084
787.758
784.791
781.324
777.685
773.955
770.106
766.184
762.165
758.02
753.715
749.219
744.517
739.59
734.431
729.042
723.445
717.675
711.79
705.869
700.008
694.307
688.86
683.737
678.972
674.558
670.439
666.513
662.647
658.696
654.523
650.009
645.072
639.689
633.949
628.088
622.492
617.621
613.879
611.493
610.452
610.515
611.243
612.101
612.67
612.869
612.979
613.444
614.639
616.742
619.695
623.261
627.126
630.993
634.615
637.807
640.439
642.437
643.775
644.461
644.527
644.024
643.017
641.566
639.722
637.537
635.059
632.316
629.317
626.074
622.622
619.035
615.405
611.822
608.346
604.983
601.693
598.41
595.075
591.65
588.117
584.474
580.725
576.881
572.956
568.961
564.908
560.807
556.668
552.498
548.3
544.076
539.828
535.551
531.244
526.906
522.536
518.13
513.689
509.232
504.802
500.413
496.033
491.622
487.172
482.702
478.234
473.817
469.441
464.976
460.415
455.846
451.536
446.103
436.102
423.335
410.021
395.497
380.442
365.798
352.131
339.977
329.921
322.434
317.812
316.119
317.092
320.078
324.097
328.213
331.82
334.436
335.596
335.118
333.129
329.845
325.479
320.318
809.304
808.968
808.423
807.694
806.739
805.609
804.381
803.115
801.886
800.744
799.694
798.692
797.657
796.52
795.272
793.961
792.643
791.358
790.145
789.039
788.065
787.249
786.618
786.195
786.005
786.071
786.405
787.002
787.834
788.864
790.052
791.344
792.67
793.937
795.043
795.883
796.379
796.52
796.279
795.65
794.743
793.442
791.618
789.165
786.139
782.652
779.015
775.275
771.368
767.336
763.158
758.807
754.246
749.447
744.388
739.049
733.418
727.502
721.329
714.964
708.5
702.062
695.79
689.832
684.319
679.335
674.891
670.923
667.304
663.865
660.426
656.824
652.934
648.673
644.011
638.987
633.728
628.468
623.522
619.245
615.938
613.765
612.696
612.493
612.711
612.787
612.291
611.232
610.082
609.504
610.049
611.965
615.137
619.185
623.652
628.139
632.344
636.055
639.125
641.47
643.062
643.919
644.089
643.64
642.651
641.198
639.334
637.107
634.578
631.806
628.805
625.575
622.131
618.511
614.8
611.124
607.585
604.215
600.971
597.772
594.539
591.214
587.765
584.185
580.484
576.674
572.774
568.798
564.76
560.671
556.539
552.374
548.182
543.962
539.713
535.432
531.122
526.785
522.422
518.028
513.598
509.145
504.702
500.288
495.885
491.461
487.001
482.514
478.015
473.548
469.097
464.558
459.942
455.296
450.942
445.357
434.945
421.715
408.002
393.112
377.855
363.084
349.285
336.977
326.802
319.253
314.617
312.973
314.091
317.351
321.719
326.129
329.927
332.699
333.993
333.617
331.698
328.463
324.134
319.017
811.151
810.879
810.395
809.698
808.785
807.715
806.536
805.305
804.1
802.959
801.879
800.819
799.704
798.472
797.133
795.749
794.371
793.032
791.769
790.62
789.614
788.778
788.138
787.724
787.57
787.706
788.145
788.88
789.88
791.097
792.471
793.925
795.365
796.689
797.806
798.637
799.113
799.207
798.899
798.141
797.102
795.684
793.647
790.998
787.843
784.256
780.543
776.75
772.773
768.625
764.295
759.75
754.934
749.81
744.36
738.56
732.398
725.882
719.062
712.045
704.978
698.038
691.417
685.307
679.867
675.173
671.185
667.755
664.675
661.715
658.664
655.358
651.698
647.65
643.249
638.588
633.823
629.165
624.865
621.166
618.267
616.26
615.082
614.494
614.05
613.145
611.342
608.77
606.135
604.351
604.169
605.948
609.514
614.271
619.541
624.795
629.691
634.001
637.577
640.326
642.217
643.278
643.58
643.205
642.247
640.798
638.933
636.705
634.158
631.351
628.329
625.098
621.649
618.012
614.264
610.519
606.905
603.49
600.252
597.109
593.967
590.746
587.392
583.886
580.238
576.464
572.588
568.629
564.605
560.526
556.403
552.245
548.055
543.837
539.589
535.311
531.004
526.671
522.31
517.919
513.497
509.048
504.596
500.163
495.742
491.304
486.827
482.312
477.777
473.262
468.736
464.117
459.431
454.69
450.277
444.605
433.948
420.357
406.265
391.072
375.634
360.723
346.771
334.308
324.03
316.433
311.776
310.146
311.349
314.817
319.501
324.197
328.175
331.068
332.463
332.162
330.298
327.099
322.802
317.727
813.958
813.699
813.223
812.527
811.629
810.567
809.376
808.129
806.906
805.728
804.573
803.405
802.153
800.749
799.218
797.64
796.072
794.551
793.114
791.806
790.667
789.736
789.051
788.651
788.572
788.84
789.461
790.415
791.663
793.142
794.776
796.472
798.118
799.602
800.843
801.778
802.327
802.404
801.998
801.127
799.904
798.319
796.061
793.211
789.916
786.185
782.311
778.391
774.315
770.052
765.58
760.862
755.814
750.371
744.512
738.227
731.512
724.388
716.933
709.3
701.692
694.34
687.478
681.33
676.066
671.743
668.266
665.401
662.844
660.305
657.559
654.465
650.971
647.101
642.94
638.618
634.299
630.163
626.383
623.111
620.467
618.494
617.111
616.079
614.93
612.989
609.789
605.573
601.257
598.011
596.905
598.557
602.751
608.551
614.902
621.093
626.762
631.718
635.831
639.009
641.217
642.49
642.92
642.621
641.706
640.279
638.423
636.194
633.649
630.855
627.848
624.628
621.187
617.551
613.79
610.018
606.36
602.896
599.624
596.484
593.392
590.258
587.001
583.578
579.986
576.25
572.398
568.456
564.443
560.374
556.259
552.106
547.92
543.705
539.461
535.187
530.883
526.55
522.189
517.803
513.391
508.951
504.498
500.05
495.604
491.139
486.637
482.097
477.53
472.971
468.373
463.665
458.898
454.05
449.561
443.871
433.146
419.296
404.861
389.428
373.833
358.783
344.68
332.094
321.75
314.117
309.427
307.779
309.012
312.611
317.543
322.488
326.614
329.59
331.048
330.792
328.959
325.784
321.506
316.462
817.74
817.436
816.877
816.076
815.05
813.856
812.563
811.259
810.005
808.778
807.517
806.183
804.724
803.098
801.318
799.443
797.536
795.652
793.858
792.227
790.823
789.701
788.914
788.506
788.515
788.958
789.825
791.081
792.668
794.511
796.523
798.589
800.579
802.355
803.812
804.884
805.509
805.596
805.108
804.131
802.791
801.095
798.718
795.716
792.312
788.447
784.354
780.22
775.974
771.554
766.911
762.011
756.758
751.045
744.825
738.097
730.88
723.218
715.219
707.069
699.018
691.342
684.311
678.174
673.11
669.159
666.169
663.822
661.731
659.548
657.034
654.084
650.705
646.973
643.008
638.953
634.964
631.187
627.744
624.736
622.233
620.243
618.679
617.292
615.546
612.664
608.11
602.162
595.891
590.77
588.368
589.793
594.879
602.165
609.966
617.28
623.769
629.358
633.988
637.585
640.11
641.598
642.151
641.909
641.013
639.588
637.739
635.534
633.008
630.215
627.227
624.059
620.668
617.052
613.301
609.546
605.896
602.417
599.111
595.942
592.854
589.771
586.598
583.257
579.727
576.029
572.201
568.275
564.274
560.214
556.106
551.958
547.777
543.566
539.325
535.054
530.753
526.423
522.067
517.689
513.285
508.852
504.396
499.931
495.459
490.967
486.443
481.879
477.282
472.681
468.011
463.211
458.357
453.393
448.808
443.153
432.544
418.559
403.833
388.226
372.513
357.348
343.131
330.468
320.082
312.407
307.663
305.968
307.189
310.847
315.941
321.069
325.297
328.307
329.785
329.539
327.71
324.538
320.261
315.226
822.818
822.408
821.655
820.57
819.184
817.625
816.058
814.596
813.233
811.879
810.44
808.869
807.123
805.148
802.943
800.573
798.123
795.684
793.355
791.239
789.434
788.023
787.08
786.657
786.79
787.48
788.693
790.359
792.392
794.704
797.2
799.762
802.235
804.436
806.205
807.444
808.133
808.273
807.854
806.955
805.689
804.032
801.653
798.534
795.014
791.043
786.715
782.295
777.792
773.148
768.282
763.146
757.667
751.728
745.243
738.189
730.597
722.54
714.148
705.627
697.253
689.336
682.181
676.062
671.171
667.538
664.962
663.046
661.318
659.378
656.99
654.097
650.76
647.095
643.239
639.343
635.556
632.004
628.78
625.953
623.559
621.587
619.941
618.343
616.2
612.634
606.955
599.38
591.08
583.8
579.676
580.562
586.571
595.626
605.13
613.647
620.915
627.062
632.137
636.094
638.896
640.582
641.263
641.088
640.216
638.789
636.924
634.708
632.201
629.444
626.475
623.329
619.998
616.455
612.748
609.026
605.421
601.974
598.665
595.468
592.362
589.301
586.19
582.925
579.457
575.799
571.994
568.083
564.093
560.042
555.942
551.802
547.626
543.419
539.181
534.915
530.62
526.296
521.945
517.569
513.169
508.738
504.281
499.806
495.314
490.798
486.247
481.658
477.033
472.39
467.65
462.76
457.817
452.734
448.023
442.438
432.126
418.155
403.218
387.505
371.726
356.499
342.229
329.534
319.111
311.375
306.551
304.781
305.955
309.611
314.777
320.005
324.268
327.256
328.705
328.431
326.572
323.376
319.074
314.019
829.749
829.229
828.249
826.78
824.843
822.664
820.56
818.685
816.991
815.326
813.52
811.483
809.212
806.691
803.893
800.849
797.646
794.4
791.252
788.348
785.834
783.845
782.495
781.879
782.06
783.047
784.772
787.096
789.835
792.828
795.972
799.183
802.332
805.208
807.568
809.248
810.232
810.601
810.44
809.901
808.942
807.454
805.118
801.857
798.115
794
789.465
784.724
779.887
774.941
769.808
764.404
758.669
752.508
745.829
738.578
730.773
722.497
713.895
705.181
696.637
688.592
681.379
675.294
670.543
667.145
664.86
663.215
661.671
659.802
657.4
654.452
651.057
647.356
643.509
639.68
636.006
632.594
629.52
626.832
624.556
622.671
621.07
619.456
617.191
613.3
606.933
598.232
588.374
579.217
573.319
573.31
579.821
590.307
601.187
610.575
618.368
624.914
630.332
634.567
637.574
639.402
640.183
640.08
639.254
637.852
635.999
633.785
631.275
628.53
625.595
622.491
619.209
615.738
612.123
608.483
604.943
601.541
598.245
595.03
591.905
588.852
585.783
582.581
579.169
575.55
571.768
567.872
563.895
559.855
555.765
551.632
547.463
543.262
539.029
534.769
530.481
526.161
521.813
517.44
513.043
508.615
504.157
499.675
495.167
490.626
486.046
481.43
476.778
472.095
467.289
462.314
457.28
452.08
447.208
441.7
431.852
418.077
403.036
387.289
371.507
356.282
342.022
329.33
318.875
311.067
306.139
304.268
305.366
308.966
314.113
319.343
323.563
326.465
327.83
327.485
325.562
322.305
317.953
312.854
837.972
837.444
836.428
834.832
832.606
829.989
827.323
824.739
822.265
819.898
817.449
814.724
811.651
808.202
804.362
800.144
795.62
790.924
786.248
781.823
777.901
774.736
772.564
771.575
771.888
773.5
776.246
779.8
783.749
787.738
791.622
795.478
799.42
803.365
806.968
809.815
811.705
812.724
813.107
812.953
812.349
811.102
808.853
805.424
801.357
797.019
792.322
787.324
782.162
776.879
771.448
765.789
759.825
753.475
746.662
739.333
731.487
723.194
714.597
705.908
697.405
689.41
682.256
676.241
671.572
668.271
666.076
664.467
662.867
660.866
658.296
655.171
651.604
647.757
643.813
639.943
636.279
632.92
629.938
627.375
625.24
623.5
622.044
620.589
618.506
614.753
608.418
599.594
589.365
579.506
572.65
571.785
577.974
588.587
599.553
608.824
616.52
623.124
628.698
633.091
636.215
638.121
638.955
638.896
638.115
636.758
634.944
632.767
630.293
627.571
624.656
621.591
618.376
614.997
611.486
607.949
604.496
601.153
597.873
594.641
591.492
588.441
585.402
582.244
578.875
575.286
571.524
567.643
563.68
559.653
555.574
551.452
547.292
543.098
538.873
534.618
530.335
526.02
521.676
517.307
512.913
508.485
504.024
499.535
495.013
490.449
485.843
481.201
476.524
471.803
466.936
461.882
456.757
451.45
446.39
440.94
431.67
418.293
403.297
387.596
371.874
356.711
342.515
329.863
319.396
311.518
306.475
304.479
305.473
308.965
314.002
319.128
323.214
325.959
327.183
326.718
324.692
321.339
316.911
311.747
845.543
845.1
844.255
842.888
840.875
838.329
835.497
832.477
829.265
825.932
822.439
818.61
814.296
809.389
803.856
797.75
791.207
784.462
777.836
771.705
766.461
762.458
759.984
759.221
760.224
762.891
766.967
771.992
777.319
782.288
786.563
790.403
794.447
799.12
804.204
808.871
812.362
814.463
815.441
815.559
815.107
814.054
811.978
808.549
804.22
799.604
794.759
789.622
784.263
778.738
773.056
767.173
761.023
754.536
747.649
740.318
732.54
724.373
715.945
707.454
699.158
691.36
684.374
678.477
673.863
670.556
668.28
666.495
664.634
662.338
659.482
656.088
652.264
648.181
644.044
640.04
636.314
632.963
630.049
627.598
625.605
624.029
622.768
621.565
619.835
616.596
610.982
602.998
593.553
584.259
577.551
576.204
581.359
590.678
600.334
608.512
615.528
621.855
627.375
631.773
634.9
636.811
637.669
637.648
636.909
635.598
633.831
631.699
629.272
626.603
623.738
620.717
617.563