/*--------------------------------*- C++ -*----------------------------------*\
  =========                 |
  \\      /  F ield         | OpenFOAM: The Open Source CFD Toolbox
   \\    /   O peration     | Website:  https://openfoam.org
    \\  /    A nd           | Version:  6
     \\/     M anipulation  |
\*---------------------------------------------------------------------------*/
FoamFile
{
    version     2.0;
    format      ascii;
    class       surfaceScalarField;
    location    "0.25";
    object      phi_0;
}
// * * * * * * * * * * * * * * * * * * * * * * * * * * * * * * * * * * * * * //

dimensions      [0 3 -1 0 0 0 0];

internalField   nonuniform List<scalar> 
24170
(
3.15346e-06
9.52679e-08
3.02637e-06
1.27091e-07
2.89653e-06
1.2984e-07
2.77043e-06
1.26096e-07
2.6583e-06
1.12135e-07
2.56272e-06
9.55744e-08
2.47323e-06
8.94911e-08
2.37711e-06
9.61265e-08
2.27363e-06
1.03474e-07
2.17151e-06
1.02124e-07
2.07892e-06
9.25872e-08
1.99384e-06
8.50813e-08
1.90663e-06
8.72077e-08
1.80427e-06
1.02357e-07
1.66969e-06
1.34587e-07
1.49395e-06
1.75733e-07
1.24928e-06
2.44678e-07
3.41274e-07
9.08001e-07
3.45234e-06
9.97685e-08
3.45474e-06
1.24686e-07
3.44916e-06
1.35426e-07
3.43575e-06
1.39501e-07
3.42353e-06
1.24353e-07
3.41254e-06
1.06573e-07
3.3997e-06
1.02326e-07
3.38372e-06
1.12104e-07
3.36602e-06
1.21179e-07
3.34769e-06
1.20448e-07
3.32812e-06
1.12161e-07
3.30345e-06
1.09747e-07
3.26801e-06
1.22656e-07
3.21498e-06
1.55381e-07
3.13923e-06
2.10338e-07
3.03065e-06
2.84315e-07
2.8865e-06
3.88833e-07
5.26673e-07
2.7011e-06
3.70396e-06
1.02156e-08
3.73649e-06
9.21634e-08
3.73109e-06
1.4082e-07
3.7202e-06
1.50396e-07
3.71126e-06
1.33284e-07
3.70413e-06
1.13707e-07
3.6973e-06
1.09155e-07
3.68836e-06
1.21051e-07
3.67446e-06
1.35075e-07
3.6543e-06
1.40604e-07
3.62881e-06
1.37658e-07
3.60157e-06
1.36982e-07
3.57484e-06
1.49386e-07
3.54769e-06
1.82532e-07
3.51714e-06
2.40893e-07
3.47614e-06
3.25306e-07
3.42693e-06
4.38044e-07
5.77896e-07
3.37571e-06
4e-06
-6.88502e-09
4.03065e-06
6.15154e-08
4.04135e-06
1.30123e-07
4.03474e-06
1.57001e-07
4.02394e-06
1.44089e-07
4.01681e-06
1.20838e-07
4.00932e-06
1.16648e-07
3.99322e-06
1.37148e-07
3.96437e-06
1.6392e-07
3.92575e-06
1.79225e-07
3.88399e-06
1.79416e-07
3.84561e-06
1.7537e-07
3.81343e-06
1.81567e-07
3.78698e-06
2.08977e-07
3.765e-06
2.62877e-07
3.74497e-06
3.45336e-07
3.73117e-06
4.51836e-07
5.79332e-07
3.72974e-06
4.10709e-06
-4.391e-08
4.13993e-06
2.86783e-08
4.17875e-06
9.12967e-08
4.20566e-06
1.30094e-07
4.22316e-06
1.26593e-07
4.23628e-06
1.07714e-07
4.24213e-06
1.10796e-07
4.23874e-06
1.4054e-07
4.22937e-06
1.73293e-07
4.21925e-06
1.89347e-07
4.21001e-06
1.88653e-07
4.19859e-06
1.86784e-07
4.18027e-06
1.99894e-07
4.15236e-06
2.36885e-07
4.11765e-06
2.97588e-07
4.08236e-06
3.80625e-07
4.05672e-06
4.77481e-07
5.86289e-07
4.04976e-06
4.42166e-06
1.31813e-08
4.42843e-06
2.19142e-08
4.47016e-06
4.95661e-08
4.48882e-06
1.11434e-07
4.47715e-06
1.38259e-07
4.45877e-06
1.26092e-07
4.45448e-06
1.1509e-07
4.46769e-06
1.27328e-07
4.48773e-06
1.53257e-07
4.50066e-06
1.76416e-07
4.49736e-06
1.91946e-07
4.47623e-06
2.07923e-07
4.44166e-06
2.34461e-07
4.40066e-06
2.77884e-07
4.36133e-06
3.36924e-07
4.3309e-06
4.11055e-07
4.31575e-06
4.92623e-07
5.829e-07
4.31914e-06
4.88786e-06
-1.17815e-08
4.89373e-06
1.60391e-08
4.89935e-06
4.39452e-08
4.89471e-06
1.16079e-07
4.88356e-06
1.49406e-07
4.86249e-06
1.47159e-07
4.83371e-06
1.4387e-07
4.80599e-06
1.55052e-07
4.7842e-06
1.75047e-07
4.76735e-06
1.93264e-07
4.75296e-06
2.06338e-07
4.74024e-06
2.20639e-07
4.72975e-06
2.44953e-07
4.72108e-06
2.8655e-07
4.71321e-06
3.44797e-07
4.70658e-06
4.17683e-07
4.70211e-06
4.9709e-07
5.80027e-07
4.70499e-06
5.14228e-06
9.61628e-08
5.11775e-06
4.05681e-08
5.16269e-06
-9.9265e-10
5.20344e-06
7.53311e-08
5.21393e-06
1.38909e-07
5.20883e-06
1.52262e-07
5.21137e-06
1.41333e-07
5.2296e-06
1.36822e-07
5.25352e-06
1.51127e-07
5.26628e-06
1.80504e-07
5.25634e-06
2.16276e-07
5.22291e-06
2.54073e-07
5.17487e-06
2.92995e-07
5.12565e-06
3.35767e-07
5.08647e-06
3.83973e-07
5.0639e-06
4.40254e-07
5.05913e-06
5.01866e-07
5.68973e-07
5.07018e-06
5.63076e-06
8.44022e-08
5.5757e-06
9.56309e-08
5.51089e-06
6.38125e-08
5.47572e-06
1.10501e-07
5.46945e-06
1.45181e-07
5.47838e-06
1.43338e-07
5.48946e-06
1.30254e-07
5.49624e-06
1.30037e-07
5.4978e-06
1.49561e-07
5.49566e-06
1.8265e-07
5.49226e-06
2.19672e-07
5.49059e-06
2.55748e-07
5.49269e-06
2.90897e-07
5.4986e-06
3.29851e-07
5.50663e-06
3.75948e-07
5.5159e-06
4.3098e-07
5.52649e-06
4.91271e-07
5.54451e-07
5.54102e-06
5.96139e-06
1.58125e-07
5.97336e-06
8.36619e-08
5.92568e-06
1.11488e-07
5.87221e-06
1.63979e-07
5.87072e-06
1.46671e-07
5.91159e-06
1.02462e-07
5.9536e-06
8.82472e-08
5.96959e-06
1.14046e-07
5.958e-06
1.61146e-07
5.93143e-06
2.09227e-07
5.90303e-06
2.48068e-07
5.8809e-06
2.77881e-07
5.86838e-06
3.03418e-07
5.86651e-06
3.31723e-07
5.87494e-06
3.6752e-07
5.89239e-06
4.13524e-07
5.91732e-06
4.66341e-07
5.23151e-07
5.94862e-06
6.3109e-06
6.7764e-08
6.34579e-06
4.87726e-08
6.3594e-06
9.7883e-08
6.3799e-06
1.43476e-07
6.38613e-06
1.40439e-07
6.36748e-06
1.21118e-07
6.33949e-06
1.16236e-07
6.32254e-06
1.30993e-07
6.32413e-06
1.59562e-07
6.33794e-06
1.95411e-07
6.35236e-06
2.3365e-07
6.3589e-06
2.71336e-07
6.35544e-06
3.06886e-07
6.34605e-06
3.41105e-07
6.33857e-06
3.75005e-07
6.3399e-06
4.1219e-07
6.35637e-06
4.49876e-07
4.92306e-07
6.38721e-06
5.60647e-06
3.95234e-08
5.59458e-06
6.06618e-08
5.62546e-06
6.70045e-08
5.66578e-06
1.03152e-07
5.67717e-06
1.29049e-07
5.66025e-06
1.38037e-07
5.64156e-06
1.34927e-07
5.64285e-06
1.29708e-07
5.66772e-06
1.34686e-07
5.70575e-06
1.57385e-07
5.74225e-06
1.97145e-07
5.76626e-06
2.47331e-07
5.77371e-06
2.99431e-07
5.76709e-06
3.47727e-07
5.75358e-06
3.88514e-07
5.7423e-06
4.23473e-07
5.74027e-06
4.51908e-07
4.77398e-07
5.75517e-06
6.90519e-06
7.0461e-08
6.9592e-06
6.65413e-09
6.94328e-06
8.29248e-08
6.94058e-06
1.05854e-07
6.97398e-06
9.5646e-08
7.00324e-06
1.08781e-07
6.99852e-06
1.39646e-07
6.96233e-06
1.65895e-07
6.91701e-06
1.8e-07
6.88557e-06
1.88834e-07
6.88081e-06
2.01906e-07
6.90395e-06
2.24184e-07
6.94893e-06
2.54449e-07
7.00642e-06
2.90245e-07
7.0669e-06
3.28035e-07
7.1237e-06
3.66667e-07
7.17267e-06
4.02938e-07
4.37441e-07
7.21263e-06
8.55987e-06
1.21213e-07
8.55236e-06
1.41636e-08
8.51341e-06
1.2187e-07
8.50149e-06
1.17779e-07
8.53034e-06
6.67875e-08
8.5692e-06
6.99231e-08
8.58486e-06
1.23989e-07
8.56388e-06
1.86872e-07
8.51677e-06
2.27108e-07
8.46602e-06
2.39583e-07
8.43031e-06
2.37621e-07
8.41682e-06
2.37676e-07
8.42325e-06
2.48013e-07
8.4431e-06
2.70398e-07
8.47154e-06
2.99598e-07
8.50565e-06
3.32558e-07
8.54528e-06
3.63307e-07
3.89542e-07
8.59318e-06
1.03658e-05
8.51102e-08
1.03322e-05
4.77552e-08
1.0313e-05
1.41038e-07
1.03757e-05
5.50564e-08
1.0457e-05
-1.44902e-08
1.04982e-05
2.87043e-08
1.04917e-05
1.30528e-07
1.04648e-05
2.13809e-07
1.0448e-05
2.43822e-07
1.04563e-05
2.31271e-07
1.04876e-05
2.06374e-07
1.05308e-05
1.94448e-07
1.05737e-05
2.05178e-07
1.06075e-05
2.36565e-07
1.063e-05
2.77092e-07
1.06451e-05
3.17452e-07
1.06607e-05
3.47685e-07
3.66396e-07
1.06839e-05
1.29431e-05
-1.47468e-07
1.29111e-05
7.97125e-08
1.28967e-05
1.55516e-07
1.28608e-05
9.09178e-08
1.2784e-05
6.22899e-08
1.2709e-05
1.03765e-07
1.26754e-05
1.64097e-07
1.26891e-05
2.0005e-07
1.27268e-05
2.06149e-07
1.2758e-05
2.00065e-07
1.27649e-05
1.99481e-07
1.27478e-05
2.11534e-07
1.27192e-05
2.33784e-07
1.26948e-05
2.60944e-07
1.26866e-05
2.85335e-07
1.27008e-05
3.03273e-07
1.27379e-05
3.1052e-07
3.0687e-07
1.27975e-05
1.51564e-05
4.6007e-08
1.51263e-05
1.09798e-07
1.526e-05
2.18352e-08
1.54021e-05
-5.11375e-08
1.54741e-05
-9.68624e-09
1.54889e-05
8.89464e-08
1.54843e-05
1.6867e-07
1.54853e-05
1.99081e-07
1.54966e-05
1.94794e-07
1.55146e-05
1.8209e-07
1.55387e-05
1.75411e-07
1.55733e-05
1.76867e-07
1.56232e-05
1.83937e-07
1.56894e-05
1.94718e-07
1.57673e-05
2.0742e-07
1.58507e-05
2.19948e-07
1.59312e-05
2.29962e-07
2.35593e-07
1.60025e-05
1.87092e-05
2.08026e-08
1.88829e-05
-6.38606e-08
1.89624e-05
-5.77332e-08
1.89189e-05
-7.60865e-09
1.88286e-05
8.0638e-08
1.87473e-05
1.70203e-07
1.87089e-05
2.07128e-07
1.8722e-05
1.85933e-07
1.87704e-05
1.4636e-07
1.88271e-05
1.25474e-07
1.88723e-05
1.30129e-07
1.89032e-05
1.46033e-07
1.89293e-05
1.57808e-07
1.89648e-05
1.59252e-07
1.90189e-05
1.5327e-07
1.90926e-05
1.46242e-07
1.918e-05
1.42535e-07
1.44581e-07
1.92711e-05
2.28191e-05
5.84266e-08
2.27236e-05
3.16224e-08
2.26967e-05
-3.07608e-08
2.27371e-05
-4.8033e-08
2.28175e-05
2.22791e-10
2.29131e-05
7.46399e-08
2.30037e-05
1.16509e-07
2.30763e-05
1.1331e-07
2.31266e-05
9.6099e-08
2.31561e-05
9.59305e-08
2.31693e-05
1.16927e-07
2.31723e-05
1.43023e-07
2.31732e-05
1.56955e-07
2.31799e-05
1.52479e-07
2.31985e-05
1.34707e-07
2.32309e-05
1.1381e-07
2.3276e-05
9.74464e-08
8.98488e-08
2.33308e-05
1.68623e-05
2.29634e-07
1.6666e-05
2.27953e-07
1.65533e-05
8.18627e-08
1.6533e-05
-2.76937e-08
1.65832e-05
-5.00174e-08
1.66643e-05
-6.43833e-09
1.67354e-05
4.54416e-08
1.67827e-05
6.59709e-08
1.68207e-05
5.81331e-08
1.68694e-05
4.72711e-08
1.69355e-05
5.07685e-08
1.70101e-05
6.84432e-08
1.70769e-05
9.01164e-08
1.71232e-05
1.06197e-07
1.71443e-05
1.13652e-07
1.71439e-05
1.14198e-07
1.71299e-05
1.11444e-07
1.09684e-07
1.711e-05
1.46593e-05
1.72234e-07
1.4594e-05
2.93242e-07
1.4505e-05
1.70796e-07
1.44533e-05
2.40162e-08
1.4449e-05
-4.56878e-08
1.44739e-05
-3.12904e-08
1.45135e-05
5.81442e-09
1.4565e-05
1.44591e-08
1.46285e-05
-5.3615e-09
1.46992e-05
-2.33943e-08
1.47662e-05
-1.62555e-08
1.48184e-05
1.62464e-08
1.48502e-05
5.8283e-08
1.48642e-05
9.21965e-08
1.48689e-05
1.08984e-07
1.48731e-05
1.09935e-07
1.48839e-05
1.00668e-07
8.81072e-08
1.49055e-05
1.2763e-05
8.56242e-08
1.29495e-05
1.06734e-07
1.29699e-05
1.50376e-07
1.28732e-05
1.2077e-07
1.27484e-05
7.90272e-08
1.26623e-05
5.48991e-08
1.26379e-05
3.01246e-08
1.26605e-05
-8.10808e-09
1.27054e-05
-5.02918e-08
1.27583e-05
-7.62351e-08
1.28137e-05
-7.16501e-08
1.28674e-05
-3.74322e-08
1.29128e-05
1.28156e-08
1.29428e-05
6.21778e-08
1.29547e-05
9.71163e-08
1.29514e-05
1.13201e-07
1.29406e-05
1.1147e-07
9.75035e-08
1.29312e-05
1.12412e-05
1.34615e-07
1.12157e-05
1.32249e-07
1.11936e-05
1.72472e-07
1.11744e-05
1.39996e-07
1.11676e-05
8.57793e-08
1.1173e-05
4.95022e-08
1.11827e-05
2.04957e-08
1.11863e-05
-1.17984e-08
1.11797e-05
-4.36234e-08
1.11669e-05
-6.34925e-08
1.11565e-05
-6.11828e-08
1.11542e-05
-3.51796e-08
1.11613e-05
5.76659e-09
1.11753e-05
4.80928e-08
1.1194e-05
7.84446e-08
1.12166e-05
9.065e-08
1.12439e-05
8.41676e-08
6.41806e-08
1.12772e-05
9.49577e-06
-2.51857e-08
9.61847e-06
9.54814e-09
9.71799e-06
7.29561e-08
9.77355e-06
8.44322e-08
9.79907e-06
6.02566e-08
9.81959e-06
2.89879e-08
9.83482e-06
5.2645e-09
9.82947e-06
-6.44693e-09
9.79802e-06
-1.21774e-08
9.75145e-06
-1.69165e-08
9.70777e-06
-1.75053e-08
9.68141e-06
-8.82414e-09
9.67876e-06
8.42071e-09
9.6997e-06
2.71514e-08
9.73933e-06
3.88158e-08
9.79077e-06
3.92053e-08
9.84627e-06
2.8669e-08
1.07746e-08
9.89968e-06
8.22387e-06
-1.48155e-07
8.27216e-06
-3.8745e-08
8.36183e-06
-1.67058e-08
8.45688e-06
-1.06225e-08
8.51866e-06
-1.52559e-09
8.5279e-06
1.97461e-08
8.49239e-06
4.07805e-08
8.44195e-06
4.39901e-08
8.40569e-06
2.40788e-08
8.39751e-06
-8.73428e-09
8.41712e-06
-3.71133e-08
8.4573e-06
-4.90054e-08
8.50928e-06
-4.35607e-08
8.5651e-06
-2.86616e-08
8.61823e-06
-1.43145e-08
8.66395e-06
-6.51748e-09
8.69998e-06
-7.36407e-09
-1.29093e-08
8.72367e-06
7.16563e-06
2.74259e-08
7.17501e-06
-4.81289e-08
7.23887e-06
-8.05646e-08
7.28218e-06
-5.39319e-08
7.29635e-06
-1.56899e-08
7.299e-06
1.70889e-08
7.31375e-06
2.60321e-08
7.35249e-06
5.25735e-09
7.40799e-06
-3.14237e-08
7.46283e-06
-6.35798e-08
7.50222e-06
-7.64993e-08
7.51995e-06
-6.67383e-08
7.51781e-06
-4.14172e-08
7.50165e-06
-1.25053e-08
7.47828e-06
9.05388e-09
7.45326e-06
1.85095e-08
7.43019e-06
1.57001e-08
2.83525e-09
7.41445e-06
6.38184e-06
-4.62059e-08
6.36277e-06
-2.90638e-08
6.33286e-06
-5.06475e-08
6.30469e-06
-2.57655e-08
6.30195e-06
-1.29469e-08
6.33509e-06
-1.60552e-08
6.38367e-06
-2.25506e-08
6.41998e-06
-3.10435e-08
6.43293e-06
-4.43795e-08
6.43109e-06
-6.17375e-08
6.43066e-06
-7.60711e-08
6.44305e-06
-7.91235e-08
6.47013e-06
-6.85056e-08
6.50708e-06
-4.94535e-08
6.54633e-06
-3.01936e-08
6.58159e-06
-1.67531e-08
6.60895e-06
-1.16569e-08
-1.27415e-08
6.62453e-06
5.63052e-06
1.23401e-08
5.63678e-06
-3.53202e-08
5.61902e-06
-3.28897e-08
5.61491e-06
-2.16525e-08
5.62529e-06
-2.33259e-08
5.63869e-06
-2.94611e-08
5.65258e-06
-3.64351e-08
5.66537e-06
-4.38315e-08
5.67083e-06
-4.98438e-08
5.66371e-06
-5.46192e-08
5.64619e-06
-5.85521e-08
5.62743e-06
-6.03586e-08
5.61741e-06
-5.84846e-08
5.6218e-06
-5.38498e-08
5.64028e-06
-4.86692e-08
5.66864e-06
-4.51085e-08
5.70109e-06
-4.41133e-08
-4.48329e-08
5.73318e-06
4.83435e-06
-1.34315e-07
4.87564e-06
-7.66109e-08
4.88918e-06
-4.64352e-08
4.891e-06
-2.34648e-08
4.89122e-06
-2.3553e-08
4.90617e-06
-4.44049e-08
4.93665e-06
-6.692e-08
4.96889e-06
-7.60684e-08
4.98838e-06
-6.93348e-08
4.98978e-06
-5.60189e-08
4.97771e-06
-4.6477e-08
4.96137e-06
-4.4024e-08
4.94846e-06
-4.55765e-08
4.94167e-06
-4.70558e-08
4.93964e-06
-4.6638e-08
4.93928e-06
-4.47493e-08
4.93827e-06
-4.31047e-08
-4.28946e-08
4.93633e-06
4.07692e-06
4.0003e-06
3.95387e-06
3.9304e-06
3.90685e-06
3.86245e-06
3.79553e-06
3.71946e-06
3.65012e-06
3.5941e-06
3.54763e-06
3.5036e-06
3.45803e-06
3.41097e-06
3.36433e-06
3.31958e-06
3.27648e-06
3.23358e-06
-2.52357e-07
2.52357e-07
-4.45866e-07
1.93509e-07
-5.93906e-07
1.4804e-07
-7.00819e-07
1.06913e-07
-7.68461e-07
6.76418e-08
-7.55401e-07
-1.30605e-08
-6.22191e-07
-1.33209e-07
-3.53538e-07
-2.68653e-07
4.23435e-08
-3.95882e-07
5.42797e-07
-5.00454e-07
1.11116e-06
-5.68362e-07
1.71158e-06
-6.0042e-07
2.31516e-06
-6.03584e-07
2.89921e-06
-5.84043e-07
3.44609e-06
-5.46887e-07
3.94166e-06
-4.95562e-07
4.37438e-06
-4.32723e-07
4.73494e-06
-3.60556e-07
5.01582e-06
-2.80882e-07
5.21065e-06
-1.94831e-07
5.31427e-06
-1.03617e-07
5.32154e-06
-7.27096e-09
5.22733e-06
9.42041e-08
5.02923e-06
1.98103e-07
4.72713e-06
3.02096e-07
4.32316e-06
4.03972e-07
3.81972e-06
5.03441e-07
3.22459e-06
5.95129e-07
2.54015e-06
6.84447e-07
1.79022e-06
7.49927e-07
1.05235e-06
7.37868e-07
4.29281e-07
6.23069e-07
-9.26059e-08
5.21887e-07
-4.6968e-07
3.77074e-07
-6.4218e-07
1.725e-07
-7.34033e-07
9.18527e-08
-7.5896e-07
2.49276e-08
-6.66964e-07
-9.19962e-08
-4.87351e-07
-1.79614e-07
-2.47293e-07
-2.40058e-07
6.36376e-08
-3.1093e-07
5.43081e-07
-4.79443e-07
1.11794e-06
-5.74858e-07
1.62649e-06
-5.08551e-07
2.12828e-06
-5.01789e-07
2.68155e-06
-5.5327e-07
3.11925e-06
-4.37702e-07
3.25441e-06
-1.35161e-07
3.2046e-06
4.98163e-08
3.01312e-06
1.91475e-07
2.46172e-06
5.51401e-07
1.72496e-06
7.36762e-07
1.44103e-06
2.83933e-07
1.42013e-06
2.08958e-08
1.31257e-06
1.07561e-07
6.34854e-07
6.77714e-07
-4.96157e-07
1.13101e-06
-1.59548e-06
1.09932e-06
-2.61261e-06
1.01713e-06
-3.52612e-06
9.1351e-07
-4.35611e-06
8.29996e-07
-5.10565e-06
7.49535e-07
-5.79581e-06
6.90161e-07
-6.43328e-06
6.3747e-07
-7.02937e-06
5.96086e-07
-7.58463e-06
5.55263e-07
-8.10193e-06
5.17303e-07
-8.57879e-06
4.76858e-07
-9.01666e-06
4.37868e-07
-9.4185e-06
4.01839e-07
-9.79382e-06
3.75323e-07
-1.01573e-05
3.63479e-07
-1.05296e-05
3.72337e-07
-1.09342e-05
4.04535e-07
-1.13931e-05
4.5888e-07
-1.19205e-05
5.27481e-07
-1.25155e-05
5.94987e-07
-1.31556e-05
6.40047e-07
-1.37958e-05
6.402e-07
-1.43761e-05
5.80291e-07
-1.48347e-05
4.58663e-07
-1.5123e-05
2.88238e-07
-1.52167e-05
9.37237e-08
-1.51257e-05
-9.09704e-08
-1.48856e-05
-2.40157e-07
-1.45263e-05
-3.5926e-07
-1.40698e-05
-4.56496e-07
-1.35425e-05
-5.27272e-07
-1.2965e-05
-5.77566e-07
-1.23511e-05
-6.13856e-07
-1.17135e-05
-6.37602e-07
-1.10605e-05
-6.52976e-07
-1.03977e-05
-6.62834e-07
-9.72977e-06
-6.67924e-07
-9.06024e-06
-6.6953e-07
-8.392e-06
-6.68235e-07
-7.72807e-06
-6.63936e-07
-7.07137e-06
-6.56698e-07
-6.42492e-06
-6.46444e-07
-5.79187e-06
-6.33052e-07
-5.17535e-06
-6.1652e-07
-4.57842e-06
-5.96933e-07
-4.00391e-06
-5.7451e-07
-3.45433e-06
-5.49574e-07
-2.93176e-06
-5.22572e-07
-2.43765e-06
-4.94109e-07
-1.97274e-06
-4.64919e-07
-1.53691e-06
-4.35828e-07
-1.12917e-06
-4.07736e-07
-7.47586e-07
-3.81585e-07
-3.89353e-07
-3.58234e-07
-5.10747e-08
-3.38278e-07
2.71214e-07
-3.22288e-07
5.81758e-07
-3.10544e-07
8.84168e-07
-3.02411e-07
1.18082e-06
-2.96648e-07
1.47253e-06
-2.91715e-07
1.7584e-06
-2.85873e-07
2.03594e-06
-2.77534e-07
2.30159e-06
-2.65655e-07
2.55134e-06
-2.49746e-07
2.78057e-06
-2.29235e-07
2.98409e-06
-2.03512e-07
3.1582e-06
-1.74112e-07
3.30313e-06
-1.44927e-07
3.42002e-06
-1.16892e-07
3.50926e-06
-8.92379e-08
3.57831e-06
-6.90529e-08
3.63495e-06
-5.66373e-08
3.66345e-06
-2.85057e-08
3.65685e-06
6.59712e-09
3.6653e-06
-8.45063e-09
3.70321e-06
-3.79022e-08
3.68854e-06
1.46703e-08
3.64077e-06
4.77637e-08
3.68106e-06
-4.02893e-08
3.64753e-06
3.35363e-08
3.20455e-06
4.42971e-07
2.42102e-06
7.83533e-07
1.63874e-06
7.82277e-07
1.11455e-06
5.2419e-07
9.62207e-07
1.52347e-07
1.07752e-06
-1.1531e-07
1.23771e-06
-1.60197e-07
1.30484e-06
-6.71234e-08
1.27295e-06
3.18851e-08
1.20903e-06
6.39223e-08
1.18524e-06
2.37863e-08
1.25187e-06
-6.66296e-08
1.37743e-06
-1.2556e-07
1.41372e-06
-3.6291e-08
1.29916e-06
1.14568e-07
1.17475e-06
1.24411e-07
1.24942e-06
-7.46735e-08
1.61499e-06
-3.65576e-07
2.00117e-06
-3.86177e-07
1.83901e-06
1.6216e-07
5.52898e-07
1.28611e-06
-1.37297e-06
1.92587e-06
-3.08466e-06
1.7117e-06
-4.44089e-06
1.35623e-06
-5.52056e-06
1.07967e-06
-6.37279e-06
8.52233e-07
-6.99501e-06
6.22214e-07
-7.37981e-06
3.84806e-07
-7.51939e-06
1.39576e-07
-7.4206e-06
-9.87845e-08
-7.10046e-06
-3.20148e-07
-6.57697e-06
-5.23489e-07
-5.87348e-06
-7.03489e-07
-5.01791e-06
-8.55573e-07
-4.04555e-06
-9.72359e-07
-2.99639e-06
-1.04916e-06
-1.91076e-06
-1.08563e-06
-8.2217e-07
-1.08859e-06
2.19972e-07
-1.04214e-06
1.21541e-06
-9.95441e-07
2.09611e-06
-8.80697e-07
2.88845e-06
-7.92342e-07
-5.0669e-07
3.39514e-06
-7.05779e-09
2.59415e-07
-4.61603e-08
2.32611e-07
-2.63996e-08
1.28279e-07
6.85063e-08
1.20076e-08
2.74596e-07
-1.38448e-07
6.07567e-07
-3.46031e-07
1.05315e-06
-5.78791e-07
1.57694e-06
-7.92445e-07
2.14226e-06
-9.612e-07
2.71833e-06
-1.07652e-06
3.28775e-06
-1.13778e-06
3.83826e-06
-1.15093e-06
4.35937e-06
-1.1247e-06
4.84306e-06
-1.06773e-06
5.28341e-06
-9.87229e-07
5.67579e-06
-8.87944e-07
6.01561e-06
-7.72543e-07
6.29776e-06
-6.42712e-07
6.51653e-06
-4.99645e-07
6.66656e-06
-3.44861e-07
6.74282e-06
-1.7988e-07
6.74435e-06
-8.79899e-09
6.67497e-06
1.63585e-07
6.53654e-06
3.36532e-07
6.33144e-06
5.0719e-07
6.0638e-06
6.71616e-07
5.73922e-06
8.2802e-07
5.3629e-06
9.71453e-07
4.94687e-06
1.10048e-06
4.4904e-06
1.20639e-06
3.95925e-06
1.26902e-06
3.30907e-06
1.27325e-06
2.6181e-06
1.21286e-06
1.94163e-06
1.05354e-06
1.31466e-06
7.99472e-07
8.27914e-07
5.78595e-07
4.71548e-07
3.81293e-07
2.80204e-07
9.93475e-08
2.45934e-07
-1.45343e-07
3.69838e-07
-3.63962e-07
6.48713e-07
-5.89805e-07
1.07658e-06
-9.07307e-07
1.51497e-06
-1.01325e-06
2.15001e-06
-1.14359e-06
2.81889e-06
-1.17067e-06
3.37732e-06
-1.1117e-06
3.84252e-06
-9.02899e-07
3.99568e-06
-2.88322e-07
3.84597e-06
1.99525e-07
3.58019e-06
4.57254e-07
3.27095e-06
8.60643e-07
2.91643e-06
1.09128e-06
2.05559e-06
1.14477e-06
4.58913e-07
1.61757e-06
-1.50972e-06
2.07619e-06
-2.94699e-06
2.11499e-06
-3.89521e-06
2.07923e-06
-4.73107e-06
1.93518e-06
-5.48728e-06
1.77334e-06
-6.18361e-06
1.60984e-06
-6.81918e-06
1.46556e-06
-7.41305e-06
1.34341e-06
-7.96416e-06
1.24127e-06
-8.47876e-06
1.15206e-06
-8.95529e-06
1.07262e-06
-9.39758e-06
9.97555e-07
-9.80669e-06
9.26417e-07
-1.01877e-05
8.57838e-07
-1.0547e-05
7.97239e-07
-1.08953e-05
7.50108e-07
-1.1245e-05
7.24975e-07
-1.16091e-05
7.2758e-07
-1.19982e-05
7.61428e-07
-1.24181e-05
8.24499e-07
-1.28688e-05
9.09522e-07
-1.33433e-05
1.00198e-06
-1.38281e-05
1.07981e-06
-1.43015e-05
1.11351e-06
-1.47322e-05
1.0709e-06
-1.50804e-05
9.28406e-07
-1.53077e-05
6.85998e-07
-1.53944e-05
3.74966e-07
-1.53464e-05
4.56689e-08
-1.51758e-05
-2.61544e-07
-1.4883e-05
-5.32944e-07
-1.44795e-05
-7.62764e-07
-1.3993e-05
-9.43038e-07
-1.34451e-05
-1.07511e-06
-1.2855e-05
-1.16768e-06
-1.22381e-05
-1.2308e-06
-1.1602e-05
-1.27362e-06
-1.09531e-05
-1.30196e-06
-1.02963e-05
-1.3196e-06
-9.63449e-06
-1.32972e-06
-8.97019e-06
-1.33383e-06
-8.30621e-06
-1.33222e-06
-7.64524e-06
-1.3249e-06
-6.99028e-06
-1.31165e-06
-6.34461e-06
-1.29211e-06
-5.71159e-06
-1.26608e-06
-5.09465e-06
-1.23346e-06
-4.49714e-06
-1.19444e-06
-3.92217e-06
-1.14948e-06
-3.37245e-06
-1.0993e-06
-2.85014e-06
-1.04487e-06
-2.35671e-06
-9.87547e-07
-1.89269e-06
-9.28933e-07
-1.4577e-06
-8.70815e-07
-1.05037e-06
-8.1507e-07
-6.68391e-07
-7.63564e-07
-3.08624e-07
-7.18e-07
3.29378e-08
-6.7984e-07
3.60695e-07
-6.50046e-07
6.78823e-07
-6.28672e-07
9.91031e-07
-6.14618e-07
1.30013e-06
-6.05745e-07
1.60754e-06
-5.99131e-07
1.91309e-06
-5.91416e-07
2.21484e-06
-5.79284e-07
2.50914e-06
-5.59956e-07
2.79095e-06
-5.31562e-07
3.0552e-06
-4.93477e-07
3.29807e-06
-4.46387e-07
3.51579e-06
-3.91834e-07
3.703e-06
-3.3213e-07
3.85683e-06
-2.7073e-07
3.97874e-06
-2.11147e-07
4.06693e-06
-1.5724e-07
4.12424e-06
-1.13946e-07
4.17182e-06
-7.60883e-08
4.20744e-06
-2.90235e-08
4.18882e-06
1.01698e-08
4.13943e-06
1.14861e-08
4.13213e-06
2.19762e-08
4.11683e-06
6.30658e-08
4.04624e-06
3.02976e-08
4.07347e-06
6.30941e-09
4.2568e-06
2.59639e-07
4.37471e-06
6.6562e-07
4.2963e-06
8.60688e-07
4.13127e-06
6.8922e-07
3.97279e-06
3.10829e-07
3.80561e-06
5.18744e-08
3.59454e-06
5.08648e-08
3.32692e-06
2.00505e-07
3.02986e-06
3.28939e-07
2.74892e-06
3.44867e-07
2.51159e-06
2.61115e-07
2.34911e-06
9.58435e-08
2.32031e-06
-9.67555e-08
2.40149e-06
-1.17468e-07
2.40151e-06
1.14541e-07
2.28849e-06
2.37439e-07
2.39409e-06
-1.80278e-07
2.68194e-06
-6.53423e-07
2.42686e-06
-1.31101e-07
1.06218e-06
1.52684e-06
-9.91139e-07
3.33944e-06
-2.65468e-06
3.5894e-06
-3.85922e-06
2.91624e-06
-4.87766e-06
2.37466e-06
-5.73402e-06
1.93602e-06
-6.42465e-06
1.54286e-06
-6.92505e-06
1.12262e-06
-7.22328e-06
6.83036e-07
-7.31243e-06
2.28725e-07
-7.18142e-06
-2.29793e-07
-6.83014e-06
-6.71429e-07
-6.27562e-06
-1.07801e-06
-5.54254e-06
-1.43657e-06
-4.66033e-06
-1.73778e-06
-3.663e-06
-1.96969e-06
-2.59093e-06
-2.12123e-06
-1.49853e-06
-2.17803e-06
-4.02653e-07
-2.18447e-06
6.33304e-07
-2.0781e-06
1.63898e-06
-2.00112e-06
2.51548e-06
-1.7572e-06
3.3056e-06
-1.58246e-06
-1.17506e-06
3.97397e-06
1.33283e-07
1.26133e-07
1.76561e-07
1.89333e-07
2.63188e-07
4.16519e-08
5.47489e-07
-2.72294e-07
1.04747e-06
-6.38428e-07
1.67567e-06
-9.74233e-07
2.33344e-06
-1.23656e-06
2.95837e-06
-1.41738e-06
3.52131e-06
-1.52414e-06
4.01369e-06
-1.5689e-06
4.43993e-06
-1.56402e-06
4.81063e-06
-1.52164e-06
5.138e-06
-1.45207e-06
5.43283e-06
-1.36256e-06
5.70249e-06
-1.25689e-06
5.95049e-06
-1.13595e-06
6.17684e-06
-9.98886e-07
6.3786e-06
-8.4447e-07
6.55109e-06
-6.72143e-07
6.68829e-06
-4.82058e-07
6.78413e-06
-2.75716e-07
6.8312e-06
-5.58749e-08
6.82272e-06
1.72066e-07
6.75668e-06
4.02577e-07
6.63555e-06
6.28319e-07
6.46475e-06
8.42416e-07
6.25325e-06
1.03952e-06
6.00995e-06
1.21476e-06
5.74428e-06
1.36614e-06
5.45591e-06
1.49476e-06
5.13045e-06
1.59449e-06
4.74903e-06
1.65467e-06
4.30589e-06
1.656e-06
3.78145e-06
1.57799e-06
3.18096e-06
1.39995e-06
2.62465e-06
1.13491e-06
2.2032e-06
8.02742e-07
1.85171e-06
4.50843e-07
1.57886e-06
1.2751e-07
1.42959e-06
-2.14697e-07
1.45423e-06
-6.14446e-07
1.5742e-06
-1.02727e-06
1.97296e-06
-1.41202e-06
2.59246e-06
-1.76309e-06
3.16266e-06
-1.74087e-06
3.36994e-06
-1.31898e-06
3.40003e-06
-9.32989e-07
3.29883e-06
-1.87118e-07
3.00011e-06
4.98244e-07
2.41537e-06
1.04199e-06
1.51718e-06
1.75884e-06
2.26933e-07
2.38153e-06
-1.43795e-06
2.80965e-06
-2.87466e-06
3.05428e-06
-3.84729e-06
3.04882e-06
-4.58719e-06
2.85489e-06
-5.15134e-06
2.64338e-06
-5.6468e-06
2.43064e-06
-6.11266e-06
2.2392e-06
-6.57654e-06
2.07372e-06
-7.03804e-06
1.92706e-06
-7.49712e-06
1.8025e-06
-7.94485e-06
1.68899e-06
-8.37725e-06
1.58447e-06
-8.78667e-06
1.48204e-06
-9.16904e-06
1.37993e-06
-9.52104e-06
1.27842e-06
-9.84561e-06
1.1824e-06
-1.01493e-05
1.10094e-06
-1.04431e-05
1.0439e-06
-1.07397e-05
1.02159e-06
-1.10526e-05
1.04048e-06
-1.13942e-05
1.103e-06
-1.1775e-05
1.20528e-06
-1.22026e-05
1.33714e-06
-1.26796e-05
1.47896e-06
-1.31979e-05
1.59816e-06
-1.37305e-05
1.64611e-06
-1.42262e-05
1.56654e-06
-1.46184e-05
1.32062e-06
-1.48508e-05
9.18402e-07
-1.4901e-05
4.25149e-07
-1.47808e-05
-7.45298e-08
-1.45183e-05
-5.2398e-07
-1.41468e-05
-9.04495e-07
-1.36958e-05
-1.21378e-06
-1.31873e-05
-1.45147e-06
-1.26411e-05
-1.6213e-06
-1.2073e-05
-1.73585e-06
-1.1491e-05
-1.81283e-06
-1.08991e-05
-1.86547e-06
-1.03001e-05
-1.901e-06
-9.69476e-06
-1.92491e-06
-9.08356e-06
-1.94092e-06
-8.46735e-06
-1.95004e-06
-7.8476e-06
-1.95197e-06
-7.22641e-06
-1.9461e-06
-6.60646e-06
-1.9316e-06
-5.99094e-06
-1.90764e-06
-5.38337e-06
-1.87364e-06
-4.78755e-06
-1.82928e-06
-4.20746e-06
-1.77453e-06
-3.6471e-06
-1.70984e-06
-3.1103e-06
-1.6361e-06
-2.60064e-06
-1.55453e-06
-2.12116e-06
-1.46703e-06
-1.67388e-06
-1.37621e-06
-1.25935e-06
-1.28534e-06
-8.76304e-07
-1.19812e-06
-5.21569e-07
-1.1183e-06
-1.90481e-07
-1.04909e-06
1.22562e-07
-9.92883e-07
4.23357e-07
-9.50841e-07
7.17256e-07
-9.22571e-07
1.00873e-06
-9.06091e-07
1.30081e-06
-8.97829e-07
1.59473e-06
-8.93048e-07
1.88987e-06
-8.86552e-07
2.18414e-06
-8.73563e-07
2.47463e-06
-8.50445e-07
2.75808e-06
-8.1501e-07
3.03107e-06
-7.66467e-07
3.28997e-06
-7.0528e-07
3.53069e-06
-6.32558e-07
3.74783e-06
-5.49269e-07
3.93497e-06
-4.57869e-07
4.08896e-06
-3.65144e-07
4.21071e-06
-2.78987e-07
4.29843e-06
-2.01663e-07
4.35163e-06
-1.29294e-07
4.37957e-06
-5.69597e-08
4.38386e-06
5.88321e-09
4.36152e-06
3.38278e-08
4.34302e-06
4.04701e-08
4.33416e-06
7.19296e-08
4.27148e-06
9.29706e-08
4.20884e-06
6.89494e-08
4.33269e-06
1.3579e-07
4.62373e-06
3.74578e-07
4.88968e-06
5.94742e-07
5.00725e-06
5.71652e-07
4.95354e-06
3.64539e-07
4.80647e-06
1.98937e-07
4.68692e-06
1.70416e-07
4.62659e-06
2.60841e-07
4.53446e-06
4.21065e-07
4.30793e-06
5.714e-07
3.94914e-06
6.199e-07
3.56923e-06
4.75762e-07
3.30814e-06
1.6433e-07
3.19341e-06
-2.74102e-09
3.06275e-06
2.45207e-07
2.91636e-06
3.83827e-07
2.92485e-06
-1.88772e-07
2.77955e-06
-5.0812e-07
1.90639e-06
7.42059e-07
1.9099e-07
3.24224e-06
-1.52059e-06
5.05102e-06
-2.60863e-06
4.67744e-06
-3.55764e-06
3.86525e-06
-4.52786e-06
3.34489e-06
-5.41709e-06
2.82525e-06
-6.14678e-06
2.27255e-06
-6.67472e-06
1.65056e-06
-6.97799e-06
9.863e-07
-7.05007e-06
3.00807e-07
-6.88976e-06
-3.90099e-07
-6.50924e-06
-1.05195e-06
-5.92926e-06
-1.65799e-06
-5.17662e-06
-2.18921e-06
-4.28146e-06
-2.63294e-06
-3.2745e-06
-2.97665e-06
-2.19314e-06
-3.20259e-06
-1.11363e-06
-3.25753e-06
-4.42269e-08
-3.25387e-06
9.60984e-07
-3.08331e-06
1.9283e-06
-2.96844e-06
2.80071e-06
-2.62961e-06
3.5685e-06
-2.35025e-06
-1.85239e-06
4.24583e-06
1.67717e-08
1.09361e-07
9.62146e-08
1.0989e-07
5.31037e-07
-3.93171e-07
1.2363e-06
-9.7756e-07
1.99792e-06
-1.40005e-06
2.67363e-06
-1.64994e-06
3.20896e-06
-1.77189e-06
3.60073e-06
-1.80915e-06
3.871e-06
-1.79441e-06
4.05224e-06
-1.75015e-06
4.1791e-06
-1.69088e-06
4.28264e-06
-1.62517e-06
4.38649e-06
-1.55593e-06
4.50476e-06
-1.48083e-06
4.64204e-06
-1.39416e-06
4.79548e-06
-1.2894e-06
4.95791e-06
-1.16132e-06
5.12064e-06
-1.0072e-06
5.27546e-06
-8.26958e-07
5.41561e-06
-6.22217e-07
5.536e-06
-3.96099e-07
5.63282e-06
-1.52693e-07
5.70116e-06
1.03723e-07
5.73647e-06
3.67264e-07
5.73565e-06
6.29141e-07
5.69853e-06
8.79538e-07
5.62826e-06
1.10979e-06
5.52905e-06
1.31397e-06
5.4063e-06
1.48888e-06
5.26417e-06
1.63689e-06
5.10263e-06
1.75602e-06
4.9132e-06
1.84411e-06
4.67655e-06
1.89265e-06
4.36758e-06
1.88696e-06
3.97613e-06
1.79141e-06
3.52853e-06
1.58251e-06
3.0791e-06
1.25217e-06
2.66716e-06
8.62783e-07
2.38187e-06
4.12791e-07
2.14388e-06
2.32971e-08
2.02209e-06
-4.92652e-07
1.92211e-06
-9.27296e-07
2.15653e-06
-1.64644e-06
2.26123e-06
-1.86779e-06
2.16221e-06
-1.64185e-06
1.88897e-06
-1.04574e-06
1.29218e-06
-3.36204e-07
5.82962e-07
5.22103e-07
-3.39807e-07
1.42101e-06
-1.42555e-06
2.12773e-06
-2.45829e-06
2.79158e-06
-3.36294e-06
3.28617e-06
-4.09244e-06
3.53916e-06
-4.56274e-06
3.52458e-06
-4.86791e-06
3.35399e-06
-5.16401e-06
3.15099e-06
-5.47444e-06
2.9538e-06
-5.8116e-06
2.7678e-06
-6.1755e-06
2.6031e-06
-6.55846e-06
2.45668e-06
-6.95306e-06
2.32166e-06
-7.34966e-06
2.1991e-06
-7.74003e-06
2.07935e-06
-8.1157e-06
1.96014e-06
-8.46887e-06
1.83521e-06
-8.79491e-06
1.70596e-06
-9.09269e-06
1.57621e-06
-9.36613e-06
1.45584e-06
-9.62214e-06
1.35695e-06
-9.87098e-06
1.29274e-06
-1.01254e-05
1.27605e-06
-1.04012e-05
1.3162e-06
-1.07155e-05
1.41739e-06
-1.10855e-05
1.57525e-06
-1.15224e-05
1.77398e-06
-1.20235e-05
1.98011e-06
-1.25623e-05
2.13691e-06
-1.30823e-05
2.16617e-06
-1.35075e-05
1.99174e-06
-1.37697e-05
1.58276e-06
-1.38382e-05
9.86949e-07
-1.37271e-05
3.14095e-07
-1.34749e-05
-3.26795e-07
-1.31195e-05
-8.79376e-07
-1.26896e-05
-1.33437e-06
-1.22089e-05
-1.69444e-06
-1.1701e-05
-1.95946e-06
-1.11837e-05
-2.13858e-06
-1.06652e-05
-2.25431e-06
-1.01477e-05
-2.33029e-06
-9.63117e-06
-2.38204e-06
-9.11347e-06
-2.4187e-06
-8.59208e-06
-2.44629e-06
-8.06542e-06
-2.46758e-06
-7.53306e-06
-2.4824e-06
-6.99565e-06
-2.48938e-06
-6.45461e-06
-2.48714e-06
-5.91179e-06
-2.47441e-06
-5.36934e-06
-2.4501e-06
-4.8295e-06
-2.41348e-06
-4.29467e-06
-2.36411e-06
-3.7675e-06
-2.30171e-06
-3.25092e-06
-2.22641e-06
-2.74802e-06
-2.139e-06
-2.26206e-06
-2.04049e-06
-1.7969e-06
-1.9322e-06
-1.357e-06
-1.81611e-06
-9.47137e-07
-1.6952e-06
-5.71207e-07
-1.57405e-06
-2.30525e-07
-1.45898e-06
7.73872e-08
-1.357e-06
3.58662e-07
-1.27416e-06
6.21835e-07
-1.21401e-06
8.7619e-07
-1.17693e-06
1.13014e-06
-1.16004e-06
1.38982e-06
-1.15751e-06
1.65806e-06
-1.16129e-06
1.93396e-06
-1.16245e-06
2.21343e-06
-1.15303e-06
2.49073e-06
-1.12774e-06
2.76052e-06
-1.0848e-06
3.01934e-06
-1.02529e-06
3.26573e-06
-9.51661e-07
3.49899e-06
-8.6582e-07
3.71772e-06
-7.67998e-07
3.91885e-06
-6.59003e-07
4.09908e-06
-5.45368e-07
4.25727e-06
-4.37178e-07
4.3903e-06
-3.34697e-07
4.48617e-06