/*--------------------------------*- C++ -*----------------------------------*\
  =========                 |
  \\      /  F ield         | OpenFOAM: The Open Source CFD Toolbox
   \\    /   O peration     | Website:  https://openfoam.org
    \\  /    A nd           | Version:  6
     \\/     M anipulation  |
\*---------------------------------------------------------------------------*/
FoamFile
{
    version     2.0;
    format      ascii;
    class       volVectorField;
    location    "0.25";
    object      U;
}
// * * * * * * * * * * * * * * * * * * * * * * * * * * * * * * * * * * * * * //

dimensions      [0 1 -1 0 0 0 0];

internalField   nonuniform List<vector> 
12225
(
(10.0283 -0.00277776 0)
(9.67744 -0.027661 0)
(9.30775 -0.00521274 0)
(8.91358 0.0294045 0)
(8.52919 0.0519352 0)
(8.20609 0.0586719 0)
(7.93007 0.0595927 0)
(7.64748 0.0629335 0)
(7.32945 0.0650549 0)
(7.00268 0.057102 0)
(6.6906 0.0413719 0)
(6.42375 0.0253211 0)
(6.14899 0.0249051 0)
(5.88273 0.0354298 0)
(5.4993 0.0767357 0)
(5.07622 0.110339 0)
(4.42695 0.19678 0)
(3.72025 0.234917 0)
(10.0632 0.0661706 0)
(10.0764 0.128892 0)
(10.1235 0.137068 0)
(10.1021 0.127206 0)
(10.0601 0.103333 0)
(10.0295 0.0771671 0)
(9.99889 0.0664984 0)
(9.95738 0.0760839 0)
(9.90491 0.0928007 0)
(9.85414 0.105474 0)
(9.80005 0.110746 0)
(9.74387 0.118013 0)
(9.65759 0.133101 0)
(9.54256 0.16051 0)
(9.35499 0.205252 0)
(9.1197 0.264123 0)
(8.76628 0.352952 0)
(8.33806 0.473666 0)
(9.99531 -0.0457598 0)
(10.165 0.0196496 0)
(10.2099 0.0650321 0)
(10.1964 0.0828214 0)
(10.1707 0.0858115 0)
(10.1505 0.0895069 0)
(10.1349 0.101088 0)
(10.1165 0.118706 0)
(10.0882 0.131474 0)
(10.0455 0.132289 0)
(9.9849 0.12278 0)
(9.91203 0.11629 0)
(9.83699 0.126107 0)
(9.76593 0.164457 0)
(9.69438 0.235815 0)
(9.61279 0.343507 0)
(9.51077 0.490525 0)
(9.38084 0.673669 0)
(10.1267 0.0150014 0)
(10.2135 0.0718649 0)
(10.2984 0.0978407 0)
(10.3165 0.10714 0)
(10.2915 0.09906 0)
(10.2681 0.0840645 0)
(10.2562 0.0759842 0)
(10.234 0.0840827 0)
(10.1809 0.102301 0)
(10.0954 0.119575 0)
(9.99105 0.130965 0)
(9.88615 0.14196 0)
(9.79444 0.162476 0)
(9.7205 0.202142 0)
(9.66345 0.268765 0)
(9.6189 0.370946 0)
(9.5861 0.511184 0)
(9.56662 0.694537 0)
(9.72484 -0.113343 0)
(9.77864 -0.0170632 0)
(9.89035 0.074691 0)
(9.98768 0.114279 0)
(10.0436 0.106197 0)
(10.0823 0.0864862 0)
(10.1098 0.0926429 0)
(10.1154 0.128556 0)
(10.0988 0.170211 0)
(10.0742 0.195597 0)
(10.0528 0.20064 0)
(10.0331 0.198586 0)
(10.003 0.207914 0)
(9.95338 0.243583 0)
(9.88222 0.31293 0)
(9.80317 0.419529 0)
(9.7294 0.559516 0)
(9.68807 0.733784 0)
(9.81698 -0.0114049 0)
(9.77609 -0.0292207 0)
(9.87108 -0.00328435 0)
(9.97074 0.051135 0)
(9.98378 0.0872577 0)
(9.93721 0.0939142 0)
(9.9024 0.0945477 0)
(9.91337 0.108961 0)
(9.95774 0.133195 0)
(10.004 0.154306 0)
(10.0229 0.167568 0)
(10.0007 0.181522 0)
(9.94028 0.209155 0)
(9.85701 0.260672 0)
(9.76714 0.338168 0)
(9.69053 0.444794 0)
(9.63589 0.57421 0)
(9.62133 0.729407 0)
(10.0911 -0.0482363 0)
(10.1242 0.0106133 0)
(10.1497 0.031114 0)
(10.1545 0.0705903 0)
(10.1509 0.0853412 0)
(10.1227 0.0767265 0)
(10.0683 0.0734834 0)
(10.0065 0.0899283 0)
(9.95477 0.119311 0)
(9.9168 0.149955 0)
(9.88685 0.178097 0)
(9.86025 0.209695 0)
(9.83698 0.25269 0)
(9.81982 0.31361 0)
(9.80558 0.392236 0)
(9.79404 0.489734 0)
(9.7832 0.599785 0)
(9.77933 0.723337 0)
(10.0082 0.0268052 0)
(9.86212 0.00276543 0)
(9.91757 -0.0016138 0)
(10.036 0.0654075 0)
(10.0983 0.118383 0)
(10.0937 0.137439 0)
(10.0808 0.145013 0)
(10.1005 0.158816 0)
(10.1487 0.180095 0)
(10.1948 0.201003 0)
(10.2067 0.216244 0)
(10.1698 0.230501 0)
(10.0903 0.254395 0)
(9.99256 0.30022 0)
(9.90349 0.373365 0)
(9.84164 0.474024 0)
(9.81362 0.59399 0)
(9.81908 0.72748 0)
(10.1908 -0.082749 0)
(10.1282 -0.0426621 0)
(9.99422 -0.0433483 0)
(9.90881 0.0143603 0)
(9.8792 0.075404 0)
(9.88665 0.0984372 0)
(9.90921 0.0890304 0)
(9.92879 0.0749545 0)
(9.93792 0.0814605 0)
(9.93826 0.118261 0)
(9.93395 0.179568 0)
(9.92988 0.253109 0)
(9.93058 0.326619 0)
(9.93904 0.394938 0)
(9.95347 0.458149 0)
(9.97101 0.524092 0)
(9.98969 0.59593 0)
(10.0106 0.681771 0)
(10.0431 0.0683993 0)
(10.0683 0.0433602 0)
(10.0426 0.0436091 0)
(9.93244 0.0866695 0)
(9.87309 0.099993 0)
(9.91646 0.0859742 0)
(10.004 0.0818476 0)
(10.0642 0.105064 0)
(10.0695 0.146716 0)
(10.0343 0.188908 0)
(9.98522 0.220909 0)
(9.94178 0.245201 0)
(9.91193 0.272147 0)
(9.89927 0.315048 0)
(9.90459 0.382144 0)
(9.92754 0.473291 0)
(9.96332 0.582039 0)
(10.0123 0.698014 0)
(9.91636 -0.037371 0)
(9.97931 0.0312601 0)
(9.97174 0.0856781 0)
(10.016 0.124742 0)
(10.0527 0.110502 0)
(10.0432 0.0821759 0)
(9.99927 0.0796038 0)
(9.95817 0.106997 0)
(9.9447 0.150992 0)
(9.95931 0.199234 0)
(9.98667 0.245228 0)
(10.0084 0.287185 0)
(10.0137 0.325172 0)
(10.0032 0.362189 0)
(9.98762 0.402558 0)
(9.98116 0.454761 0)
(9.9905 0.518373 0)
(10.0283 0.601342 0)
(9.89019 -0.0440758 0)
(9.78451 -0.00773725 0)
(9.77252 0.031086 0)
(9.86839 0.0693407 0)
(9.92894 0.0828644 0)
(9.91793 0.0771143 0)
(9.8747 0.0679446 0)
(9.85232 0.0686253 0)
(9.87438 0.0875401 0)
(9.93313 0.126815 0)
(10.0052 0.182819 0)
(10.0654 0.248787 0)
(10.0974 0.317678 0)
(10.0995 0.385193 0)
(10.08 0.448121 0)
(10.0556 0.508602 0)
(10.0399 0.5649 0)
(10.0464 0.622599 0)
(9.87114 0.0266294 0)
(9.99384 -0.031237 0)
(9.97246 -0.024516 0)
(9.93586 0.0121496 0)
(9.96577 0.0618789 0)
(10.0269 0.113156 0)
(10.0537 0.148676 0)
(10.0237 0.160655 0)
(9.95816 0.157967 0)
(9.89476 0.157284 0)
(9.8639 0.171196 0)
(9.87631 0.203489 0)
(9.92564 0.250876 0)
(10.0008 0.308652 0)
(10.0875 0.371686 0)
(10.1741 0.437916 0)
(10.2526 0.503193 0)
(10.3159 0.568205 0)
(10.1059 0.005222 0)
(10.0933 -0.0180855 0)
(10.0425 0.074694 0)
(9.99917 0.106244 0)
(10.0081 0.0724656 0)
(10.0562 0.0517804 0)
(10.0981 0.0675057 0)
(10.1006 0.10566 0)
(10.059 0.147624 0)
(9.99507 0.184444 0)
(9.93946 0.216715 0)
(9.90915 0.249057 0)
(9.9051 0.283197 0)
(9.92133 0.320269 0)
(9.94929 0.359377 0)
(9.98783 0.403098 0)
(10.0287 0.450652 0)
(10.0828 0.504711 0)
(10.0272 0.130038 0)
(10.021 0.0538081 0)
(9.94855 0.11087 0)
(9.96422 0.0568128 0)
(10.0517 -0.0137509 0)
(10.1242 0.00112 0)
(10.1396 0.0848347 0)
(10.1173 0.17599 0)
(10.09 0.228519 0)
(10.0819 0.233548 0)
(10.1007 0.211596 0)
(10.1396 0.191998 0)
(10.1843 0.19513 0)
(10.2239 0.228839 0)
(10.252 0.285476 0)
(10.2704 0.354546 0)
(10.283 0.421371 0)
(10.2994 0.478322 0)
(10.2425 -0.00722742 0)
(10.2256 -0.0387389 0)
(10.2328 0.0327386 0)
(10.2102 0.0139785 0)
(10.1621 0.00138018 0)
(10.0941 0.043968 0)
(10.0421 0.112076 0)
(10.0346 0.162927 0)
(10.0603 0.180299 0)
(10.0925 0.1767 0)
(10.1109 0.174517 0)
(10.1083 0.188776 0)
(10.0887 0.221642 0)
(10.0652 0.267967 0)
(10.0489 0.317072 0)
(10.0496 0.362629 0)
(10.0671 0.396549 0)
(10.1053 0.419786 0)
(9.85506 -0.103425 0)
(9.80166 0.112941 0)
(9.85953 0.124597 0)
(9.96174 0.041862 0)
(10.0421 0.0268565 0)
(10.0667 0.0761403 0)
(10.0609 0.134768 0)
(10.0574 0.169633 0)
(10.0622 0.181947 0)
(10.0715 0.188057 0)
(10.0842 0.200117 0)
(10.1023 0.221274 0)
(10.1281 0.248761 0)
(10.1644 0.279318 0)
(10.2109 0.308127 0)
(10.2634 0.331752 0)
(10.3181 0.34649 0)
(10.3673 0.350858 0)
(9.90557 -0.00616983 0)
(10.0597 -0.0290117 0)
(10.1049 -0.066105 0)
(10.0968 -0.074811 0)
(10.0677 -0.0289593 0)
(10.0169 0.0455411 0)
(9.97659 0.103917 0)
(9.96868 0.125472 0)
(9.98749 0.121581 0)
(10.0178 0.112318 0)
(10.0463 0.107307 0)
(10.0667 0.106801 0)
(10.08 0.110106 0)
(10.0939 0.118667 0)
(10.1154 0.135659 0)
(10.1488 0.161277 0)
(10.1911 0.193993 0)
(10.2405 0.2307 0)
(10.0013 0.0865929 0)
(9.96696 -0.0619577 0)
(9.92657 -0.074147 0)
(9.92658 0.00150992 0)
(9.9551 0.105717 0)
(9.99546 0.198575 0)
(10.0386 0.233577 0)
(10.0749 0.202781 0)
(10.1006 0.148924 0)
(10.1178 0.122026 0)
(10.1279 0.138068 0)
(10.1315 0.177565 0)
(10.1309 0.210293 0)
(10.131 0.217279 0)
(10.1352 0.197391 0)
(10.1459 0.1639 0)
(10.1616 0.129774 0)
(10.1834 0.111099 0)
(10.0597 0.0979419 0)
(9.99862 0.0941029 0)
(9.93244 0.0205822 0)
(9.8809 -0.0439374 0)
(9.8757 -0.0648992 0)
(9.92062 -0.0463982 0)
(9.97812 -0.0173835 0)
(10.0145 0.00421188 0)
(10.0329 0.0217972 0)
(10.0543 0.0453478 0)
(10.0887 0.0761496 0)
(10.1325 0.106253 0)
(10.1763 0.126195 0)
(10.2117 0.132661 0)
(10.2331 0.129789 0)
(10.2399 0.124315 0)
(10.2351 0.122236 0)
(10.2239 0.125493 0)
(10.0536 0.0932616 0)
(10.0397 0.200365 0)
(9.99083 0.0927351 0)
(9.94315 -0.0234616 0)
(9.91039 -0.0541947 0)
(9.9144 -0.00829466 0)
(9.94316 0.0571286 0)
(9.97505 0.0892593 0)
(10.0096 0.0769312 0)
(10.0539 0.0450357 0)
(10.1037 0.0235818 0)
(10.1473 0.026275 0)
(10.1773 0.0489213 0)
(10.1925 0.0780014 0)
(10.1978 0.102422 0)
(10.1995 0.117411 0)
(10.2028 0.123628 0)
(10.2126 0.126006 0)
(9.93337 0.0446887 0)
(10.1552 0.114837 0)
(10.2461 0.114976 0)
(10.2212 0.065741 0)
(10.1081 0.0149055 0)
(10.0026 -0.00903451 0)
(9.96004 -0.0233638 0)
(9.96493 -0.0484938 0)
(9.99156 -0.0777843 0)
(10.0287 -0.0875207 0)
(10.0715 -0.0617207 0)
(10.1153 -0.00554098 0)
(10.1558 0.0603884 0)
(10.1873 0.113864 0)
(10.2048 0.141777 0)
(10.2085 0.144942 0)
(10.2012 0.130193 0)
(10.1913 0.109726 0)
(10.2041 0.0906608 0)
(10.178 0.0803508 0)
(10.1456 0.113398 0)
(10.1367 0.0971596 0)
(10.119 0.0637001 0)
(10.1089 0.0468477 0)
(10.1192 0.0364905 0)
(10.1304 0.0154568 0)
(10.1281 -0.0199631 0)
(10.116 -0.0589231 0)
(10.1033 -0.0834255 0)
(10.0962 -0.0797933 0)
(10.0974 -0.0466906 0)
(10.1062 0.00628764 0)
(10.1204 0.0620722 0)
(10.138 0.106057 0)
(10.1591 0.129148 0)
(10.185 0.127071 0)
(9.86822 -0.0377344 0)
(9.94343 0.0485711 0)
(10.047 0.0922338 0)
(10.1517 0.0936324 0)
(10.1899 0.0757078 0)
(10.1978 0.0477894 0)
(10.2186 0.00940643 0)
(10.2337 -0.027963 0)
(10.2166 -0.0514565 0)
(10.1713 -0.0547581 0)
(10.1187 -0.0367097 0)
(10.0778 -0.00126865 0)
(10.0593 0.0416545 0)
(10.0661 0.0792615 0)
(10.0965 0.0997309 0)
(10.1429 0.0984836 0)
(10.1996 0.0763711 0)
(10.2566 0.0414427 0)
(9.85416 0.0574184 0)
(9.85583 -0.00430814 0)
(9.90554 0.0354694 0)
(10.0426 0.0477867 0)
(10.1591 0.0296916 0)
(10.1997 0.0134228 0)
(10.1769 0.0137774 0)
(10.12 0.024564 0)
(10.0612 0.0287416 0)
(10.0288 0.0168072 0)
(10.0328 -0.00478013 0)
(10.0679 -0.0221606 0)
(10.123 -0.0263268 0)
(10.188 -0.0185305 0)
(10.254 -0.00629161 0)
(10.3142 0.00282384 0)
(10.3639 0.00458936 0)
(10.4008 -0.000479355 0)
(9.85855 -0.055061 0)
(9.81436 -0.0369055 0)
(9.8722 -0.0532593 0)
(9.96502 -0.0630224 0)
(10.0194 -0.0496627 0)
(10.018 -0.0133391 0)
(10.0151 0.022205 0)
(10.0493 0.0313677 0)
(10.1176 0.0102333 0)
(10.1981 -0.0253313 0)
(10.2671 -0.0547715 0)
(10.3091 -0.0660065 0)
(10.3209 -0.0594019 0)
(10.3083 -0.0435617 0)
(10.2798 -0.0293879 0)
(10.2454 -0.0231308 0)
(10.2107 -0.0274829 0)
(10.1822 -0.0402967 0)
(10.0596 0.0580156 0)
(10.0546 -0.00518308 0)
(9.99785 -0.0550795 0)
(9.95641 -0.0176799 0)
(9.93058 0.0315476 0)
(9.94746 0.0500381 0)
(10.0156 0.0313456 0)
(10.0937 -0.0116635 0)
(10.1375 -0.0585731 0)
(10.1419 -0.0924918 0)
(10.1324 -0.103368 0)
(10.1361 -0.0884353 0)
(10.1651 -0.0533436 0)
(10.2157 -0.0100968 0)
(10.2776 0.0278502 0)
(10.3376 0.0517768 0)
(10.3893 0.0586036 0)
(10.4243 0.0500831 0)
(10.1649 -0.0409339 0)
(10.225 0.00991099 0)
(10.1785 0.00715511 0)
(10.1559 -0.0152914 0)
(10.1795 -0.0484694 0)
(10.2002 -0.0643394 0)
(10.2172 -0.0538322 0)
(10.2432 -0.0305523 0)
(10.267 -0.0124763 0)
(10.2694 -0.0111735 0)
(10.245 -0.0264285 0)
(10.2063 -0.0484044 0)
(10.1745 -0.0659336 0)
(10.1651 -0.0744098 0)
(10.1837 -0.0756279 0)
(10.2249 -0.0742898 0)
(10.281 -0.0744389 0)
(10.3403 -0.0772828 0)
(9.9617 -0.0322923 0)
(10.1121 -0.0848449 0)
(10.15 -0.0639274 0)
(10.1732 -0.0212497 0)
(10.174 -0.00304703 0)
(10.1796 -0.0115383 0)
(10.2231 -0.0335285 0)
(10.2958 -0.0589409 0)
(10.3591 -0.0797778 0)
(10.3844 -0.0910254 0)
(10.3704 -0.0917512 0)
(10.3358 -0.0842883 0)
(10.3014 -0.0723913 0)
(10.2797 -0.0601763 0)
(10.2701 -0.0500965 0)
(10.2686 -0.0430927 0)
(10.2671 -0.0392833 0)
(10.2639 -0.0372212 0)
(9.80527 0.024384 0)
(9.63542 0.037096 0)
(9.47742 0.0102954 0)
(9.40547 -0.00298784 0)
(9.37443 -0.0046167 0)
(9.30082 -0.0194643 0)
(9.16253 -0.0430312 0)
(8.98376 -0.0524228 0)
(8.80465 -0.0381104 0)
(8.65383 -0.0137102 0)
(8.53326 0.0010553 0)
(8.42795 -0.00203796 0)
(8.32247 -0.0174102 0)
(8.21222 -0.0347008 0)
(8.09911 -0.0477888 0)
(7.98988 -0.0556719 0)
(7.88472 -0.0615665 0)
(7.78394 -0.0676694 0)
(-0.195574 0.040368 1.16291e-19)
(-0.355091 -0.0492827 -1.15267e-19)
(-0.462066 -0.0679107 0)
(-0.584985 -0.119624 0)
(-0.730772 -0.219541 0)
(-0.742999 -0.308149 1.11922e-19)
(-0.604256 -0.372046 0)
(-0.376773 -0.450553 0)
(-0.0526618 -0.525956 0)
(0.34405 -0.585002 0)
(0.789421 -0.613392 -1.07729e-19)
(1.27275 -0.614008 0)
(1.78313 -0.592313 0)
(2.30364 -0.551517 0)
(2.81127 -0.495753 0)
(3.28492 -0.427609 -1.02541e-19)
(3.70808 -0.349729 0)
(4.07091 -0.264895 0)
(4.36522 -0.175533 0)
(4.58734 -0.0830526 0)
(4.7279 0.0103395 0)
(4.79039 0.103658 0)
(4.75963 0.195054 0)
(4.63603 0.283684 -9.54749e-20)
(4.41772 0.368216 9.48246e-20)
(4.11072 0.44849 -9.42208e-20)
(3.70718 0.52601 -9.36521e-20)
(3.22294 0.594347 0)
(2.63815 0.672876 0)
(1.97106 0.712598 9.20091e-20)
(1.23135 0.597534 9.14237e-20)
(0.651844 0.317624 0)
(0.112537 0.242032 0)
(-0.410003 0.0667831 8.9317e-20)
(-0.537217 -0.283702 0)
(-0.626996 -0.282859 0)
(-0.652196 -0.252719 -8.69564e-20)
(-0.62044 -0.249124 0)
(-0.506569 -0.266123 -8.55386e-20)
(-0.329537 -0.30504 -1.69675e-19)
(-0.0415516 -0.335182 0)
(0.316418 -0.430185 0)
(0.818094 -0.523943 0)
(1.15667 -0.310233 0)
(1.69476 -0.339129 0)
(2.22335 -0.46109 -1.59636e-19)
(2.62777 -0.39163 -1.57832e-19)
(2.89207 -0.214731 -1.56164e-19)
(2.92624 -0.139356 0)
(2.89544 -0.0443078 1.53318e-19)
(2.69776 0.113063 0)
(1.94681 0.308754 -1.5105e-19)
(1.32922 0.459858 -1.49996e-19)
(1.26613 0.245167 0)
(1.45838 -0.630477 0)
(1.44774 -0.0658299 0)
(-0.0454954 0.767976 -1.44864e-19)
(-1.07268 0.725096 0)
(-2.00741 0.674918 0)
(-2.83587 0.577247 0)
(-3.62185 0.530238 0)
(-4.32882 0.468123 0)
(-4.98554 0.435032 0)
(-5.59477 0.397156 0)
(-6.16365 0.373951 0)
(-6.69914 0.346948 1.26394e-19)
(-7.19705 0.324425 0)
(-7.6622 0.295942 0)
(-8.08811 0.26718 -1.20518e-19)
(-8.48095 0.237442 -1.18661e-19)
(-8.8428 0.214 0)
(-9.18835 0.201222 1.15082e-19)
(-9.53267 0.205621 -1.13345e-19)
(-9.8991 0.229501 0)
(-10.309 0.27179 1.09928e-19)
(-10.7816 0.325046 0)
(-11.3235 0.375386 0)
(-11.9245 0.404779 -1.04868e-19)
(-12.5512 0.396732 0)
(-13.1495 0.344922 1.01674e-19)
(-13.6545 0.2565 0)
(-14.0114 0.149282 -9.90303e-20)
(-14.1908 0.0457366 -9.80202e-20)
(-14.1818 -0.0358359 -9.72129e-20)
(-14.0074 -0.0976579 -1.93183e-19)
(-13.7242 -0.154999 1.92265e-19)
(-13.3427 -0.203626 0)
(-12.8836 -0.235185 0)
(-12.3736 -0.257922 0)
(-11.8243 -0.274635 1.90248e-19)
(-11.2475 -0.283624 1.89882e-19)
(-10.6534 -0.288754 -1.89511e-19)
(-10.0469 -0.291661 0)
(-9.43263 -0.291858 1.88688e-19)
(-8.81441 -0.290434 1.88209e-19)
(-8.19475 -0.28779 1.87667e-19)
(-7.57641 -0.283681 0)
(-6.96224 -0.27826 0)
(-6.35503 -0.271527 0)
(-5.75784 -0.263425 1.84638e-19)
(-5.17375 -0.254006 0)
(-4.60578 -0.243328 0)
(-4.05682 -0.231493 -1.81248e-19)
(-3.52945 -0.218651 0)
(-3.02586 -0.205001 0)
(-2.54767 -0.190808 -1.76902e-19)
(-2.0958 -0.176402 0)
(-1.67038 -0.162168 0)
(-1.27068 -0.148541 1.71817e-19)
(-0.89505 -0.13598 1.7001e-19)
(-0.541017 -0.124919 0)
(-0.20565 -0.115714 -1.66299e-19)
(0.113891 -0.108551 0)
(0.420391 -0.103258 1.62347e-19)
(0.716999 -0.0993932 0)
(1.00682 -0.0964355 1.58329e-19)
(1.29182 -0.0937836 1.56336e-19)
(1.57228 -0.0908085 0)
(1.84673 -0.0870539 0)
(2.11227 -0.0824347 0)
(2.36526 -0.0768906 0)
(2.60167 -0.0694723 0)
(2.81659 -0.0589981 0)
(3.0047 -0.0470999 0)
(3.1639 -0.0371709 1.40749e-19)
(3.29616 -0.0281636 -1.3885e-19)
(3.40113 -0.0192459 0)
(3.48011 -0.01738 0)
(3.54646 -0.0161275 0)
(3.60013 0.00588156 0)
(3.61031 0.0208559 -2.59203e-19)
(3.59909 -0.0177482 0)
(3.64104 -0.0369248 2.52036e-19)
(3.67993 0.0316129 -2.48524e-19)
(3.62153 0.0284273 0)
(3.6162 -0.10135 0)
(3.74233 -0.0363291 0)
(3.54415 0.256073 2.34953e-19)
(2.77829 0.303306 2.31676e-19)
(1.92397 0.0670321 0)
(1.33831 -0.108588 2.24553e-19)
(1.0574 -0.150783 2.21144e-19)
(1.04178 -0.127328 -2.18033e-19)
(1.16697 -0.0830963 0)
(1.28826 -0.0428629 0)
(1.31103 -0.0105635 -2.08848e-19)
(1.26259 0.00617113 0)
(1.22819 0.0119002 0)
(1.25696 0.0319232 0)
(1.37622 0.0898149 0)
(1.47511 0.170442 1.9341e-19)
(1.40858 0.180689 1.90429e-19)
(1.29209 0.11146 0)
(1.27547 0.0778105 1.84326e-19)
(1.57639 0.0725567 0)
(2.12592 0.0350695 0)
(2.32962 0.0329727 1.75192e-19)
(1.40916 0.262717 0)
(-0.727254 0.498407 1.67329e-19)
(-2.52409 0.442295 0)
(-3.98319 0.35156 0)
(-5.18267 0.285508 1.4873e-19)
(-6.16591 0.2284 0)
(-6.91964 0.168506 1.37141e-19)
(-7.43132 0.106741 0)
(-7.6993 0.0432476 0)
(-7.71547 -0.018619 0)
(-7.50625 -0.0759681 -1.24342e-19)
(-7.08061 -0.127781 0)
(-6.4557 -0.172239 1.23198e-19)
(-5.65477 -0.208154 0)
(-4.71253 -0.234432 0)
(-3.67312 -0.251055 0)
(-2.57788 -0.257294 0)
(-1.45578 -0.248546 0)
(-0.379822 -0.24254 0)
(0.720707 -0.215049 0)
(1.6896 -0.201701 -2.36451e-19)
(2.63471 -0.163413 0)
(3.43463 -0.115806 0)
(-0.0571387 0.516544 -3.49015e-19)
(-0.0906873 0.401083 3.46524e-19)
(-0.0810936 0.27127 0)
(-0.0343229 0.153653 -2.27685e-19)
(0.0735509 0.0835801 0)
(0.348261 -0.0868344 -1.11978e-19)
(0.740621 -0.375484 2.21986e-19)
(1.20063 -0.704912 2.19908e-19)
(1.69128 -1.01232 0)
(2.19503 -1.26272 2.15732e-19)
(2.69676 -1.43766 1.06966e-19)
(3.18486 -1.53203 0)
(3.65325 -1.55273 0)
(4.09703 -1.51203 0)
(4.51014 -1.42292 0)
(4.88585 -1.29621 1.01974e-19)
(5.21853 -1.13988 0)
(5.50256 -0.960017 -1.99517e-19)
(5.73406 -0.761526 0)
(5.90635 -0.548684 0)
(6.01765 -0.324911 1.94257e-19)
(6.05863 -0.0944041 0)
(6.03489 0.139572 -1.9116e-19)
(5.94923 0.371742 9.51097e-20)
(5.80007 0.597483 -9.44277e-20)
(5.59417 0.811087 9.37856e-20)
(5.33026 1.01284 9.3172e-20)
(5.02032 1.19621 0)
(4.65961 1.36558 0)
(4.25896 1.50944 -9.13562e-20)
(3.81039 1.59007 9.04343e-20)
(3.30894 1.55419 0)
(2.70795 1.38234 0)
(1.97204 1.07038 -8.8852e-20)
(1.41856 0.676585 0)
(1.01281 0.438473 0)
(0.562083 0.229073 8.69829e-20)
(0.253954 -0.229501 0)
(0.279577 -0.565493 -8.56707e-20)
(0.286265 -0.692977 1.69639e-19)
(0.458719 -0.830689 0)
(0.860963 -1.14693 0)
(1.20056 -1.28174 3.29297e-19)
(1.65278 -1.24693 3.25674e-19)
(2.21006 -1.18388 3.21816e-19)
(2.82199 -1.27711 -1.58596e-19)
(3.22545 -1.13613 1.57477e-19)
(3.56974 -0.607556 4.6663e-19)
(3.66227 -0.158326 -3.07694e-19)
(3.37329 0.157922 -1.53077e-19)
(3.14871 0.827659 0)
(2.87545 1.08442 1.50648e-19)
(2.80642 0.364157 -1.49384e-19)
(1.46526 0.531746 0)
(-0.759906 1.47959 0)
(-1.98812 1.85484 0)
(-3.22141 1.90416 1.43948e-19)
(-3.92097 1.76554 0)
(-4.73539 1.61725 -2.79606e-19)
(-5.32894 1.46343 0)
(-5.97223 1.33084 -2.71559e-19)
(-6.50832 1.21358 0)
(-7.05242 1.11907 2.63344e-19)
(-7.53483 1.03677 0)
(-8.0011 0.965894 -2.55222e-19)
(-8.42516 0.896866 1.25361e-19)
(-8.82501 0.829763 0)
(-9.19313 0.761989 2.43567e-19)
(-9.54054 0.70004 1.20129e-19)
(-9.87221 0.648864 1.18298e-19)
(-10.2011 0.617207 0)
(-10.539 0.611102 1.14498e-19)
(-10.8978 0.6353 1.13013e-19)
(-11.2852 0.689064 0)
(-11.7038 0.76564 -1.09594e-19)
(-12.1502 0.849793 2.15551e-19)
(-12.6149 0.918685 0)
(-13.082 0.945309 1.04581e-19)
(-13.5261 0.905486 0)
(-13.9101 0.786188 -3.03739e-19)
(-14.1909 0.590875 0)
(-14.3368 0.34138 2.96104e-19)
(-14.3441 0.0749303 9.79928e-20)
(-14.2381 -0.169025 -9.65964e-20)
(-14.0278 -0.372414 -1.92086e-19)
(-13.6952 -0.539853 1.91278e-19)
(-13.2767 -0.671791 0)
(-12.7984 -0.76566 0)
(-12.2723 -0.829299 0)
(-11.7171 -0.871098 -5.69743e-19)
(-11.1417 -0.8964 -1.89749e-19)
(-10.5502 -0.910401 1.89374e-19)
(-9.94892 -0.916512 0)
(-9.34093 -0.916774 1.88048e-19)
(-8.72792 -0.912631 -1.88067e-19)
(-8.11273 -0.904597 -1.87525e-19)
(-7.49776 -0.892775 0)
(-6.88557 -0.87719 0)
(-6.27931 -0.857773 0)
(-5.68217 -0.834523 -1.84508e-19)
(-5.09749 -0.807548 0)
(-4.52861 -0.777076 3.64575e-19)
(-3.97866 -0.743465 5.43269e-19)
(-3.45048 -0.707182 -3.59469e-19)
(-2.94642 -0.668796 0)
(-2.46818 -0.628995 -1.76726e-19)
(-2.01662 -0.588574 0)
(-1.59167 -0.548447 -3.46936e-19)
(-1.19229 -0.509688 1.71683e-19)
(-0.816488 -0.473498 1.69884e-19)
(-0.461476 -0.44106 0)
(-0.124025 -0.413398 4.98667e-19)
(0.199149 -0.391253 -3.28508e-19)
(0.511243 -0.374619 -1.62273e-19)
(0.815691 -0.362611 0)
(1.11583 -0.353781 -1.58257e-19)
(1.41405 -0.346296 -4.68717e-19)
(1.71124 -0.338132 0)
(2.00665 -0.327369 -3.04556e-19)
(2.29783 -0.312517 -3.00636e-19)
(2.58058 -0.292839 -2.96734e-19)
(2.84955 -0.268507 0)
(3.10006 -0.240171 0)
(3.32924 -0.208724 0)
(3.53277 -0.17621 1.40648e-19)
(3.70414 -0.144849 1.38769e-19)
(3.84325 -0.114368 0)
(3.95354 -0.0871593 2.70027e-19)
(4.02855 -0.070219 2.66332e-19)
(4.07587 -0.0548117 0)
(4.12939 -0.0244265 2.59059e-19)
(4.16147 -0.00577789 5.10908e-19)
(4.11267 -0.0263111 -2.51915e-19)
(4.07341 -0.0315079 -2.48388e-19)
(4.10461 -0.00778893 0)
(4.06684 -0.0433322 0)
(4.00933 -0.0603731 0)
(4.12159 0.147257 -2.34748e-19)
(4.26666 0.47014 2.30938e-19)
(4.29574 0.650129 4.54829e-19)
(4.22864 0.569605 -2.23807e-19)
(4.12145 0.291121 2.20619e-19)
(3.9409 0.0395794 2.17383e-19)
(3.71504 -0.0258211 0)
(3.46471 0.0282001 0)
(3.18549 0.0695665 -2.08368e-19)
(2.90307 0.0523307 0)
(2.66022 -0.00645594 0)
(2.47465 -0.0952272 3.9822e-19)
(2.36622 -0.167923 0)
(2.38228 -0.123804 1.93225e-19)
(2.47376 0.0103703 -1.90232e-19)
(2.43642 0.0666513 0)
(2.37001 -0.104379 1.84154e-19)
(2.76633 -0.379511 0)
(3.13284 -0.26832 0)
(2.23155 0.386732 -1.75162e-19)
(-0.122472 1.19048 3.42767e-19)
(-2.2319 1.4201 -1.66955e-19)
(-3.46068 1.19659 0)
(-4.56521 0.982949 0)
(-5.50913 0.806951 1.47629e-19)
(-6.29942 0.645463 0)
(-6.90713 0.471159 1.36242e-19)
(-7.30705 0.290073 0)
(-7.50206 0.10496 0)
(-7.48515 -0.0769856 0)
(-7.24225 -0.248448 1.24341e-19)
(-6.78373 -0.404266 0)
(-6.12528 -0.539627 -1.23163e-19)
(-5.29263 -0.651094 0)
(-4.32102 -0.734045 0)
(-3.2556 -0.786438 2.47022e-19)
(-2.13828 -0.809328 -2.46712e-19)
(-1.01061 -0.806422 0)
(0.0842144 -0.764834 0)
(1.16991 -0.730331 0)
(2.1675 -0.641204 7.08121e-19)
(3.09943 -0.582132 0)
(3.90772 -0.442682 -4.52924e-19)
(0.0574372 0.510504 -8.83514e-23)
(0.106944 0.575925 -4.61927e-19)
(0.181865 0.396092 0)
(0.307754 0.170477 4.54844e-19)
(0.663436 -0.280781 0)
(1.19014 -0.860597 0)
(1.78398 -1.42786 -2.5278e-23)
(2.36971 -1.90311 -2.18726e-19)
(2.90456 -2.2525 -2.16415e-19)
(3.37294 -2.47083 -2.14636e-19)
(3.77629 -2.5688 0)
(4.1245 -2.56501 0)
(4.43023 -2.48157 2.08252e-19)
(4.70476 -2.33933 4.12579e-19)
(4.9562 -2.15457 -4.0868e-19)
(5.18908 -1.93814 0)
(5.40448 -1.69617 -4.01029e-19)
(5.60089 -1.43213 1.9934e-19)
(5.77426 -1.1484 0)
(5.92044 -0.847573 -3.90288e-19)
(6.03239 -0.532268 -1.94203e-19)
(6.10661 -0.207567 3.83935e-19)
(6.1336 0.122931 1.91077e-19)
(6.10828 0.452455 0)
(6.02978 0.773243 -3.74851e-19)
(5.9024 1.07634 -3.72204e-19)
(5.73245 1.35607 0)
(5.52819 1.6061 -3.67324e-19)
(5.29987 1.82367 0)
(5.05015 2.00657 -3.62645e-19)
(4.78469 2.13676 -1.80536e-19)
(4.47317 2.19679 0)
(4.10494 2.15925 0)
(3.65138 1.99894 0)
(3.14652 1.69448 0)
(2.6304 1.28715 0)
(2.13438 0.854849 0)
(1.8014 0.455143 -3.44615e-19)
(1.59988 0.128527 5.12787e-19)
(1.36077 -0.362871 0)
(1.28963 -0.913861 0)
(1.45029 -1.52223 0)
(1.55345 -1.71068 2.83177e-22)
(2.09683 -2.17501 -3.25004e-19)
(2.65017 -2.31927 -6.42066e-19)
(2.9747 -2.07725 6.34358e-19)
(3.0213 -1.68939 3.13066e-19)
(2.96464 -0.731578 -3.11087e-19)
(2.86165 -0.0735202 1.16459e-21)
(2.6089 0.289116 -3.0425e-19)
(2.14834 1.00812 0)
(1.05569 1.68789 -3.00696e-19)
(-0.398397 2.3443 8.64021e-22)
(-1.99806 2.96978 0)
(-3.17136 3.18046 0)
(-3.87166 3.02722 2.88375e-19)
(-4.48798 2.85165 0)
(-4.9023 2.63213 0)
(-5.39771 2.40519 -2.76339e-19)
(-5.7798 2.20334 -5.47724e-19)
(-6.24124 2.01936 2.71145e-19)
(-6.64358 1.86628 0)
(-7.08035 1.72986 -2.63095e-19)
(-7.47839 1.60851 0)
(-7.87851 1.49344 -2.53448e-19)
(-8.24379 1.38314 -2.51154e-19)
(-8.58975 1.27746 4.93226e-19)
(-8.90349 1.17919 2.42282e-19)
(-9.19832 1.09526 0)
(-9.47772 1.03347 -4.71553e-19)
(-9.75638 1.00292 0)
(-10.0449 1.00896 -6.87117e-19)
(-10.3567 1.05298 -4.51011e-19)
(-10.702 1.13012 -4.44203e-19)
(-11.0898 1.23031 4.37324e-19)
(-11.5255 1.33657 -6.45945e-19)
(-12.0086 1.42361 0)
(-12.524 1.4555 0)
(-13.0327 1.3895 4.09115e-19)
(-13.4713 1.19204 6.04927e-19)
(-13.7729 0.863859 0)
(-13.8987 0.451293 -1.97273e-19)
(-13.8507 0.0222989 0)
(-13.6569 -0.371765 5.79884e-19)
(-13.3527 -0.70548 1.56549e-21)
(-12.9677 -0.969055 -1.35122e-21)
(-12.5215 -1.1655 -3.81145e-19)
(-12.0336 -1.30367 0)
(-11.5223 -1.39305 3.79474e-19)
(-10.996 -1.4482 9.60462e-22)
(-10.4581 -1.48199 0)
(-9.91205 -1.50031 0)
(-9.35898 -1.50762 0)
(-8.79883 -1.5078 -3.76559e-19)
(-8.23228 -1.50195 0)
(-7.66038 -1.49005 0)
(-7.08469 -1.47195 0)
(-6.50751 -1.44724 0)
(-5.93161 -1.41555 0)
(-5.36028 -1.37683 -3.68252e-19)
(-4.79713 -1.33125 0)
(-4.24595 -1.27932 -3.6443e-19)
(-3.71056 -1.22178 -3.61991e-19)
(-3.19471 -1.1597 3.59335e-19)
(-2.70197 -1.09442 0)
(-2.2355 -1.02758 3.53426e-19)
(-1.79767 -0.960874 0)
(-1.3897 -0.895968 3.46837e-19)
(-1.01117 -0.834386 -3.43342e-19)
(-0.659765 -0.777537 -1.01901e-18)
(-0.33163 -0.726699 0)
(-0.0220117 -0.683135 -9.96625e-19)
(0.273931 -0.648067 -3.28099e-19)
(0.560838 -0.621867 0)
(0.843247 -0.603582 -6.40361e-19)
(1.12497 -0.59112 -6.32373e-19)
(1.40833 -0.581557 9.36775e-19)
(1.69385 -0.571543 0)
(1.98037 -0.557849 3.04455e-19)
(2.26552 -0.537904 3.00542e-19)
(2.54636 -0.510012 8.8978e-19)
(2.81974 -0.473399 0)
(3.0822 -0.428463 0)
(3.33004 -0.37661 0)
(3.55903 -0.31955 2.81164e-19)
(3.76282 -0.260211 0)
(3.93483 -0.203653 0)
(4.07504 -0.153655 -2.69955e-19)
(4.18507 -0.110618 -2.66262e-19)
(4.25882 -0.0729408 0)
(4.301 -0.0354689 0)
(4.3277 -0.00181635 -5.10803e-19)
(4.32509 0.0103575 0)
(4.29503 0.0170056 4.96675e-19)
(4.29898 0.0467967 4.89632e-19)
(4.29931 0.0473288 0)
(4.20147 0.0158188 0)
(4.16687 0.116075 -4.69081e-19)
(4.38575 0.387084 -2.36093e-22)
(4.72999 0.598111 -1.77076e-23)
(4.99077 0.53683 0)
(5.04992 0.273278 -8.81452e-19)
(4.91095 0.0557178 0)
(4.73159 0.0161417 0)
(4.64501 0.123404 0)
(4.61577 0.269299 4.16101e-19)
(4.49216 0.347946 0)
(4.19185 0.318729 -8.07126e-19)
(3.81247 0.186153 -3.97604e-19)
(3.47627 0.00702193 0)
(3.27491 -0.0496698 -3.86118e-19)
(3.20084 0.134113 0)
(3.07275 0.268763 0)
(3.02217 -0.0406626 -1.10422e-18)
(3.20373 -0.350642 7.24215e-19)
(2.92688 0.0873835 0)
(1.28202 1.21442 7.00038e-19)
(-1.10363 2.24868 -3.42439e-19)
(-2.25057 2.25643 0)
(-3.18939 1.86227 0)
(-4.19529 1.57497 0)
(-5.17366 1.31024 -8.85333e-19)
(-5.99803 1.0488 0)
(-6.64207 0.763312 -2.73255e-19)
(-7.05736 0.466245 0)
(-7.24469 0.16419 0)
(-7.19793 -0.135596 0)
(-6.92261 -0.419948 0)
(-6.43514 -0.678941 0)
(-5.75295 -0.904666 0)
(-4.90225 -1.09129 -4.90425e-19)
(-3.91927 -1.2323 0)
(-2.84391 -1.32176 -2.46874e-19)
(-1.71731 -1.34814 7.38592e-19)
(-0.623212 -1.34823 0)
(0.473602 -1.27197 0)
(1.48756 -1.22384 -4.78643e-19)
(2.49784 -1.0656 -4.71449e-19)
(3.391 -0.965242 4.61427e-19)
(4.18028 -0.74661 4.52571e-19)
(0.0167847 0.244239 6.98491e-19)
(0.068294 0.42362 6.93532e-19)
(0.238939 0.0750022 4.58574e-19)
(0.795424 -0.892921 2.26991e-19)
(1.45534 -1.82824 0)
(2.09026 -2.53663 -4.44083e-19)
(2.6307 -2.99418 2.19571e-19)
(3.04701 -3.23298 0)
(3.34105 -3.30072 2.15912e-19)
(3.53718 -3.24611 0)
(3.66761 -3.11113 -4.23478e-19)
(3.76379 -2.93028 0)
(3.85155 -2.72783 -2.08488e-19)
(3.94825 -2.51634 -4.13249e-19)
(4.06225 -2.29774 4.09497e-19)
(4.19412 -2.06715 0)
(4.33895 -1.81726 4.02017e-19)
(4.4892 -1.54196 0)
(4.637 -1.23835 0)
(4.77523 -0.90596 3.91365e-19)
(4.89901 -0.548622 0)
(5.00218 -0.171334 -1.19065e-21)
(5.08449 0.217076 0)
(5.14009 0.605411 0)
(5.16251 0.981908 1.232e-21)
(5.14937 1.33552 3.72739e-19)
(5.10398 1.65617 3.68864e-19)
(5.02847 1.93615 3.6749e-19)
(4.93034 2.17054 0)
(4.81189 2.36157 7.24259e-19)
(4.68021 2.50558 0)
(4.52725 2.59931 3.57186e-19)
(4.34236 2.63411 0)
(4.10665 2.57943 0)
(3.79362 2.38777 -3.50755e-19)
(3.40066 2.04126 0)
(2.98674 1.55297 3.46697e-19)
(2.57923 1.01594 -9.03879e-22)
(2.29767 0.46288 -6.83696e-19)
(2.03237 -0.0354692 6.79593e-19)
(1.96829 -0.603175 0)
(1.72797 -1.18863 0)
(1.94067 -2.06855 3.30383e-19)
(2.09728 -2.59583 0)
(2.04867 -2.48078 3.21162e-19)
(1.72341 -1.65465 -3.1767e-19)
(1.39598 -1.10959 -3.14376e-19)
(0.879613 0.0384298 0)
(0.10543 1.27765 3.08183e-19)
(-0.696141 2.20783 3.04868e-19)
(-1.57154 3.10317 -6.02293e-19)
(-2.55523 3.81168 2.98943e-19)
(-3.37464 4.2377 2.96364e-19)
(-3.98169 4.28553 0)
(-4.2935 4.0531 0)
(-4.57429 3.75323 -2.87694e-19)
(-4.8405 3.47369 0)
(-5.13391 3.19644 0)
(-5.47067 2.95033 5.54734e-19)
(-5.80712 2.73662 5.47291e-19)
(-6.1816 2.54949 0)
(-6.53894 2.39008 0)
(-6.91358 2.24114 0)
(-7.26571 2.09791 0)
(-7.61061 1.9519 5.08451e-19)
(-7.9245 1.80443 -4.99011e-19)
(-8.2173 1.65838 -4.93283e-19)
(-8.48262 1.52295 -9.70375e-19)
(-8.73135 1.41042 0)
(-8.96774 1.33407 1.25612e-21)
(-9.20497 1.30613 0)
(-9.45511 1.33355 4.58056e-19)
(-9.73501 1.41734 1.00193e-21)
(-10.0611 1.55055 4.44427e-19)
(-10.4482 1.71793 -4.37504e-19)
(-10.9022 1.89147 1.24167e-21)
(-11.4115 2.02446 0)
(-11.9365 2.04887 -4.14308e-19)
(-12.4081 1.89276 -4.0924e-19)
(-12.7464 1.52136 -8.03333e-19)
(-12.8979 0.974653 0)
(-12.8604 0.356322 3.90649e-19)
(-12.671 -0.228256 0)
(-12.3742 -0.726043 -7.71186e-19)
(-12.0021 -1.13259 3.84421e-19)
(-11.5757 -1.45196 -3.82851e-19)
(-11.1168 -1.6826 3.81689e-19)
(-10.6465 -1.83282 7.58992e-19)
(-10.1745 -1.92453 -3.7996e-19)
(-9.70256 -1.97949 3.79197e-19)
(-9.23092 -2.01129 0)
(-8.75842 -2.02848 -7.53045e-19)
(-8.28238 -2.03704 0)
(-7.80066 -2.03985 -7.49965e-19)
(-7.31245 -2.03721 7.48271e-19)
(-6.81797 -2.02815 7.46384e-19)
(-6.3182 -2.01144 -7.44227e-19)
(-5.81464 -1.98582 -7.41733e-19)
(-5.3092 -1.95023 0)
(-4.80403 -1.90402 -3.67265e-19)
(-4.30149 -1.84711 0)
(-3.80413 -1.77989 0)
(-3.31459 -1.70314 -7.22759e-19)
(-2.8356 -1.61781 0)
(-2.37011 -1.52522 0)