/*--------------------------------*- C++ -*----------------------------------*\
  =========                 |
  \\      /  F ield         | OpenFOAM: The Open Source CFD Toolbox
   \\    /   O peration     | Website:  https://openfoam.org
    \\  /    A nd           | Version:  6
     \\/     M anipulation  |
\*---------------------------------------------------------------------------*/
FoamFile
{
    version     2.0;
    format      ascii;
    class       volVectorField;
    location    "0.25";
    object      U_0;
}
// * * * * * * * * * * * * * * * * * * * * * * * * * * * * * * * * * * * * * //

dimensions      [0 1 -1 0 0 0 0];

internalField   nonuniform List<vector> 
12225
(
(10.0441 -0.00318712 0)
(9.68727 -0.0255883 0)
(9.2976 -0.00244546 0)
(8.89278 0.031841 0)
(8.50387 0.0534692 0)
(8.17944 0.0594529 0)
(7.90139 0.0600963 0)
(7.61513 0.0633119 0)
(7.29377 0.0649966 0)
(6.96572 0.0563951 0)
(6.65426 0.040303 0)
(6.38827 0.0244684 0)
(6.11334 0.024727 0)
(5.84523 0.0360872 0)
(5.45814 0.0780468 0)
(5.03049 0.111945 0)
(4.37353 0.199038 0)
(3.64877 0.239906 0)
(10.0761 0.0880999 0)
(10.0868 0.13787 0)
(10.1158 0.140571 0)
(10.0828 0.128452 0)
(10.036 0.103126 0)
(10.0028 0.0768418 0)
(9.96963 0.0670511 0)
(9.92584 0.0773515 0)
(9.87218 0.0940388 0)
(9.82112 0.106286 0)
(9.76676 0.111327 0)
(9.70956 0.118808 0)
(9.62103 0.134278 0)
(9.50244 0.162057 0)
(9.31056 0.207059 0)
(9.06979 0.266276 0)
(8.70956 0.357132 0)
(8.27427 0.485812 0)
(10.0231 -0.0143239 0)
(10.1791 0.0363854 0)
(10.2022 0.0738005 0)
(10.1774 0.0877425 0)
(10.1461 0.088633 0)
(10.1225 0.0918625 0)
(10.1044 0.103488 0)
(10.0834 0.12071 0)
(10.0524 0.132479 0)
(10.0071 0.132222 0)
(9.94429 0.122216 0)
(9.87033 0.116155 0)
(9.79503 0.127222 0)
(9.72351 0.167239 0)
(9.65026 0.240309 0)
(9.56495 0.349861 0)
(9.45699 0.499622 0)
(9.32177 0.689971 0)
(10.1377 0.0743741 0)
(10.2226 0.0912097 0)
(10.2922 0.108799 0)
(10.298 0.113446 0)
(10.2663 0.102094 0)
(10.24 0.0857052 0)
(10.2257 0.0776831 0)
(10.1996 0.0862935 0)
(10.142 0.104594 0)
(10.0529 0.121393 0)
(9.94682 0.132177 0)
(9.84207 0.142956 0)
(9.75142 0.163878 0)
(9.6784 0.204525 0)
(9.62132 0.272694 0)
(9.57532 0.377063 0)
(9.53967 0.520758 0)
(9.51784 0.7109 0)
(9.72252 -0.0809257 0)
(9.78064 0.0100363 0)
(9.88548 0.0909506 0)
(9.97336 0.123182 0)
(10.0225 0.110297 0)
(10.0571 0.0896174 0)
(10.081 0.097083 0)
(10.083 0.133768 0)
(10.0636 0.17442 0)
(10.038 0.197723 0)
(10.0165 0.201008 0)
(9.99618 0.19852 0)
(9.96405 0.208868 0)
(9.91135 0.24654 0)
(9.83677 0.318361 0)
(9.75478 0.42776 0)
(9.67919 0.571368 0)
(9.63827 0.750975 0)
(9.81345 0.0254757 0)
(9.77324 -0.00726432 0)
(9.86496 0.0139358 0)
(9.95484 0.0638973 0)
(9.95764 0.0950893 0)
(9.90597 0.0985163 0)
(9.87112 0.0983458 0)
(9.88366 0.112902 0)
(9.92835 0.136711 0)
(9.9726 0.156753 0)
(9.98753 0.169176 0)
(9.96082 0.183275 0)
(9.89634 0.212054 0)
(9.81022 0.265226 0)
(9.71883 0.344591 0)
(9.64182 0.453384 0)
(9.58798 0.58569 0)
(9.57584 0.744901 0)
(10.0856 -0.0078435 0)
(10.1181 0.0380856 0)
(10.1356 0.0509073 0)
(10.1331 0.0842631 0)
(10.1243 0.0931674 0)
(10.0914 0.0814364 0)
(10.0333 0.0777626 0)
(9.96986 0.0946139 0)
(9.91771 0.123919 0)
(9.87952 0.153966 0)
(9.84913 0.181622 0)
(9.82209 0.213341 0)
(9.79855 0.257103 0)
(9.78091 0.319154 0)
(9.76561 0.39909 0)
(9.7526 0.498141 0)
(9.74041 0.610208 0)
(9.73657 0.736459 0)
(9.99543 0.0460787 0)
(9.85184 0.0291596 0)
(9.90595 0.0204304 0)
(10.019 0.0830229 0)
(10.0733 0.129965 0)
(10.0633 0.144778 0)
(10.0499 0.150542 0)
(10.071 0.163795 0)
(10.1196 0.184556 0)
(10.1634 0.204528 0)
(10.1705 0.218828 0)
(10.1282 0.232851 0)
(10.0446 0.25764 0)
(9.94506 0.30538 0)
(9.85635 0.380973 0)
(9.79615 0.484166 0)
(9.77032 0.606536 0)
(9.77822 0.742099 0)
(10.2032 -0.0272455 0)
(10.1121 -0.00838352 0)
(9.96563 -0.0204521 0)
(9.87905 0.0327662 0)
(9.85003 0.0883171 0)
(9.85756 0.105892 0)
(9.87904 0.093075 0)
(9.89671 0.0782982 0)
(9.90382 0.0860656 0)
(9.90245 0.124705 0)
(9.89691 0.187265 0)
(9.89225 0.261004 0)
(9.8929 0.33386 0)
(9.90141 0.401312 0)
(9.91556 0.464167 0)
(9.93245 0.530654 0)
(9.95039 0.603953 0)
(9.97114 0.691854 0)
(10.0322 0.158865 0)
(10.0507 0.0821967 0)
(10.0124 0.0686954 0)
(9.89799 0.10428 0)
(9.84304 0.110527 0)
(9.89086 0.0928722 0)
(9.97772 0.0884203 0)
(10.0333 0.112374 0)
(10.0335 0.15403 0)
(9.99501 0.195124 0)
(9.94481 0.2256 0)
(9.90153 0.248906 0)
(9.87231 0.276089 0)
(9.86033 0.320594 0)
(9.86622 0.390137 0)
(9.88951 0.483853 0)
(9.9255 0.594694 0)
(9.97464 0.711825 0)
(9.90373 0.0524858 0)
(9.94588 0.0748045 0)
(9.94168 0.113337 0)
(9.98807 0.142124 0)
(10.0224 0.120335 0)
(10.0088 0.0894432 0)
(9.96234 0.0871454 0)
(9.92147 0.115058 0)
(9.90957 0.158891 0)
(9.92532 0.206446 0)
(9.95244 0.251583 0)
(9.97253 0.292755 0)
(9.97555 0.330227 0)
(9.96316 0.36723 0)
(9.9467 0.408357 0)
(9.94049 0.461991 0)
(9.95119 0.527517 0)
(9.99087 0.612381 0)
(9.86685 0.0133333 0)
(9.73512 0.0304086 0)
(9.74038 0.0561947 0)
(9.84051 0.0871307 0)
(9.89729 0.0948013 0)
(9.88189 0.0852311 0)
(9.83755 0.0742376 0)
(9.81729 0.0746293 0)
(9.84233 0.0941614 0)
(9.90282 0.134327 0)
(9.97443 0.191019 0)
(10.0322 0.257256 0)
(10.0607 0.326061 0)
(10.0594 0.393301 0)
(10.0376 0.456028 0)
(10.0127 0.516509 0)
(9.99795 0.573073 0)
(10.007 0.631378 0)
(9.83644 0.0634379 0)
(9.94898 -0.00368936 0)
(9.93102 -0.00271878 0)
(9.89964 0.0299152 0)
(9.93457 0.0768263 0)
(9.99586 0.125346 0)
(10.0187 0.157699 0)
(9.98426 0.166844 0)
(9.91652 0.162621 0)
(9.85378 0.161899 0)
(9.82551 0.176703 0)
(9.84097 0.210091 0)
(9.89284 0.25836 0)
(9.96955 0.316735 0)
(10.0567 0.380203 0)
(10.1427 0.446805 0)
(10.2197 0.512444 0)
(10.2814 0.577757 0)
(10.0713 0.0315929 0)
(10.0394 0.0045145 0)
(9.99696 0.09751 0)
(9.95982 0.120421 0)
(9.97419 0.0816473 0)
(10.0242 0.0606157 0)
(10.0639 0.0770099 0)
(10.0625 0.114995 0)
(10.0175 0.15594 0)
(9.95247 0.19162 0)
(9.89793 0.223186 0)
(9.86958 0.25529 0)
(9.86725 0.289447 0)
(9.88439 0.326714 0)
(9.91263 0.36626 0)
(9.95104 0.410766 0)
(9.9919 0.459343 0)
(10.0463 0.514331 0)
(9.99809 0.124819 0)
(9.96652 0.0652804 0)
(9.90336 0.125849 0)
(9.92849 0.064938 0)
(10.0196 -0.00484636 0)
(10.09 0.014293 0)
(10.1018 0.0995936 0)
(10.0777 0.18821 0)
(10.051 0.235991 0)
(10.0447 0.23689 0)
(10.0656 0.213232 0)
(10.1055 0.194505 0)
(10.1499 0.200165 0)
(10.1883 0.236753 0)
(10.2147 0.295553 0)
(10.2317 0.365641 0)
(10.2437 0.432243 0)
(10.2607 0.488213 0)
(10.2377 -0.0301893 0)
(10.1831 -0.0248943 0)
(10.191 0.0467823 0)
(10.1674 0.0232538 0)
(10.1184 0.0118499 0)
(10.0505 0.0566582 0)
(10.0011 0.124176 0)
(9.99703 0.171945 0)
(10.0246 0.186123 0)
(10.0564 0.181072 0)
(10.0728 0.179401 0)
(10.068 0.195221 0)
(10.0469 0.229676 0)
(10.023 0.276938 0)
(10.0076 0.326129 0)
(10.0098 0.371065 0)
(10.0292 0.403903 0)
(10.0694 0.426093 0)
(9.82891 -0.0844854 0)
(9.76263 0.136736 0)
(9.82252 0.132955 0)
(9.92638 0.0484458 0)
(10.005 0.0373281 0)
(10.0274 0.0883935 0)
(10.0212 0.145464 0)
(10.0185 0.177546 0)
(10.0238 0.187978 0)
(10.0334 0.193646 0)
(10.0463 0.206133 0)
(10.065 0.227893 0)
(10.0918 0.25582 0)
(10.1293 0.286538 0)
(10.1768 0.315141 0)
(10.2298 0.338221 0)
(10.2844 0.35211 0)
(10.3331 0.355513 0)
(9.8735 0.00862664 0)
(10.0143 -0.0199311 0)
(10.0606 -0.0583219 0)
(10.0524 -0.0647914 0)
(10.0224 -0.0163633 0)
(9.97179 0.0579574 0)
(9.93382 0.113408 0)
(9.92875 0.131693 0)
(9.94962 0.126006 0)
(9.9807 0.116362 0)
(10.009 0.111509 0)
(10.0288 0.111246 0)
(10.0418 0.114948 0)
(10.0562 0.124264 0)
(10.0788 0.142356 0)
(10.1135 0.169155 0)
(10.1568 0.202938 0)
(10.2068 0.240144 0)
(9.97451 0.0734266 0)
(9.91611 -0.063551 0)
(9.87979 -0.0656138 0)
(9.88369 0.0141607 0)
(9.9147 0.119259 0)
(9.95666 0.209407 0)
(10.0006 0.238931 0)
(10.0369 0.203941 0)
(10.0621 0.15001 0)
(10.0788 0.126158 0)
(10.0885 0.145231 0)
(10.0917 0.185456 0)
(10.0911 0.216455 0)
(10.0916 0.220612 0)
(10.0965 0.198487 0)
(10.1081 0.164281 0)
(10.1247 0.131155 0)
(10.1473 0.114622 0)
(10.037 0.106484 0)
(9.95738 0.0977099 0)
(9.88546 0.0217529 0)
(9.83623 -0.0413972 0)
(9.8347 -0.0595903 0)
(9.88209 -0.0395511 0)
(9.93974 -0.0109264 0)
(9.97521 0.00987259 0)
(9.99353 0.0274793 0)
(10.0161 0.0516844 0)
(10.0522 0.0828556 0)
(10.097 0.112458 0)
(10.1409 0.131212 0)
(10.1755 0.136514 0)
(10.1956 0.133098 0)
(10.2011 0.127835 0)
(10.1954 0.126487 0)
(10.1841 0.130486 0)
(10.031 0.118074 0)
(9.98991 0.210974 0)
(9.94184 0.0909459 0)
(9.89562 -0.0239053 0)
(9.86563 -0.0492896 0)
(9.87259 0.000288264 0)
(9.9032 0.0650613 0)
(9.93631 0.0936489 0)
(9.9722 0.0782869 0)
(10.0178 0.045889 0)
(10.068 0.0260674 0)
(10.111 0.0309513 0)
(10.1399 0.0549922 0)
(10.1541 0.0842334 0)
(10.159 0.107981 0)
(10.161 0.122056 0)
(10.1652 0.127656 0)
(10.1761 0.12987 0)
(9.91096 0.0739134 0)
(10.1164 0.125864 0)
(10.1998 0.118878 0)
(10.1704 0.0660993 0)
(10.056 0.0154086 0)
(9.95396 -0.00728087 0)
(9.91615 -0.0218323 0)
(9.92446 -0.0478942 0)
(9.95311 -0.076737 0)
(9.99151 -0.083998 0)
(10.0352 -0.0549559 0)
(10.0796 0.00337414 0)
(10.1199 0.0693416 0)
(10.1507 0.120963 0)
(10.1671 0.14623 0)
(10.1697 0.147082 0)
(10.1619 0.131002 0)
(10.1525 0.110361 0)
(10.1671 0.104118 0)
(10.1181 0.0853395 0)
(10.0936 0.11752 0)
(10.089 0.0977263 0)
(10.0733 0.0638053 0)
(10.0655 0.0479124 0)
(10.0775 0.037451 0)
(10.0889 0.0152073 0)
(10.0862 -0.0211796 0)
(10.0741 -0.059686 0)
(10.062 -0.0820927 0)
(10.056 -0.0754906 0)
(10.0584 -0.0397148 0)
(10.0684 0.0146345 0)
(10.0834 0.0700774 0)
(10.1018 0.11232 0)
(10.1239 0.132757 0)
(10.151 0.127978 0)
(9.84438 -0.0334489 0)
(9.88912 0.046809 0)
(10.0045 0.0925699 0)
(10.1104 0.0933119 0)
(10.1473 0.0749021 0)
(10.1559 0.0466971 0)
(10.1776 0.0082971 0)
(10.1917 -0.0284265 0)
(10.1724 -0.050609 0)
(10.126 -0.0521375 0)
(10.0739 -0.0322167 0)
(10.035 0.00459167 0)
(10.0193 0.0477873 0)
(10.0292 0.0843351 0)
(10.0622 0.102698 0)
(10.1107 0.0989793 0)
(10.1687 0.0747527 0)
(10.2261 0.0387102 0)
(9.82924 0.00453663 0)
(9.80185 -0.016902 0)
(9.86506 0.0338441 0)
(10.0066 0.0471647 0)
(10.1212 0.0288687 0)
(10.1575 0.0136158 0)
(10.1312 0.0154318 0)
(10.073 0.0266008 0)
(10.0158 0.0297557 0)
(9.98671 0.0165641 0)
(9.99444 -0.00528181 0)
(10.0325 -0.0217376 0)
(10.0899 -0.0245276 0)
(10.1561 -0.0157876 0)
(10.2226 -0.00342999 0)
(10.2825 0.00510811 0)
(10.3314 0.00602947 0)
(10.3672 0.000325593 0)
(9.83433 -0.0993033 0)
(9.77885 -0.0501496 0)
(9.83446 -0.0590208 0)
(9.92653 -0.0642243 0)
(9.97795 -0.0477158 0)
(9.97499 -0.00986793 0)
(9.97412 0.0249131 0)
(10.0119 0.0317624 0)
(10.0831 0.00859835 0)
(10.1645 -0.027372 0)
(10.2323 -0.0556085 0)
(10.2721 -0.0650241 0)
(10.2813 -0.0570391 0)
(10.2669 -0.040816 0)
(10.2375 -0.0271916 0)
(10.2029 -0.0219936 0)
(10.1688 -0.0274902 0)
(10.1415 -0.0409847 0)
(10.0576 0.050854 0)
(10.0171 -0.017056 0)
(9.95341 -0.0591809 0)
(9.91109 -0.0154408 0)
(9.88739 0.0340496 0)
(9.90856 0.050444 0)
(9.97961 0.0296078 0)
(10.057 -0.0145729 0)
(10.098 -0.0613327 0)
(10.1007 -0.0938165 0)
(10.0917 -0.102357 0)
(10.0979 -0.0849718 0)
(10.1299 -0.0482161 0)
(10.183 -0.00464124 0)
(10.246 0.0323616 0)
(10.3061 0.0545804 0)
(10.3569 0.0594905 0)
(10.3904 0.0494555 0)
(10.1377 -0.0425915 0)
(10.1911 0.00651705 0)
(10.1356 0.00317082 0)
(10.1136 -0.0181743 0)
(10.1388 -0.0502976 0)
(10.1597 -0.0642839 0)
(10.177 -0.0520823 0)
(10.2034 -0.0283684 0)
(10.2266 -0.0112405 0)
(10.2273 -0.0114762 0)
(10.2014 -0.027777 0)
(10.1627 -0.049762 0)
(10.1327 -0.0665392 0)
(10.1265 -0.0741672 0)
(10.1484 -0.0748998 0)
(10.1925 -0.0735378 0)
(10.2502 -0.073926 0)
(10.3101 -0.0769397 0)
(9.96414 -0.0488881 0)
(10.0815 -0.0890586 0)
(10.1125 -0.0633741 0)
(10.1325 -0.01973 0)
(10.132 -0.00268046 0)
(10.1394 -0.0123444 0)
(10.186 -0.0350037 0)
(10.2602 -0.0605305 0)
(10.3224 -0.0809252 0)
(10.3449 -0.0913489 0)
(10.3287 -0.0911826 0)
(10.2935 -0.0830568 0)
(10.2603 -0.070879 0)
(10.2403 -0.058735 0)
(10.2324 -0.0489143 0)
(10.2318 -0.0422193 0)
(10.2308 -0.0386311 0)
(10.2278 -0.0366064 0)
(9.78525 0.0217473 0)
(9.60553 0.0365651 0)
(9.44206 0.0085204 0)
(9.37146 -0.00375883 0)
(9.33972 -0.00520417 0)
(9.26257 -0.0206255 0)
(9.12058 -0.0438903 0)
(8.94019 -0.0518661 0)
(8.76206 -0.0363306 0)
(8.61348 -0.0120066 0)
(8.49468 0.00157852 0)
(8.38997 -0.00280562 0)
(8.28431 -0.0188006 0)
(8.17381 -0.0359903 0)
(8.0608 -0.0486632 0)
(7.95196 -0.0562226 0)
(7.84719 -0.06207 0)
(7.74658 -0.0682275 0)
(-0.195922 0.041004 1.51665e-20)
(-0.356035 -0.0490048 -1.50264e-20)
(-0.46352 -0.0677095 0)
(-0.586933 -0.119182 0)
(-0.733305 -0.218702 0)
(-0.746479 -0.307248 1.45672e-20)
(-0.608513 -0.371448 0)
(-0.381583 -0.450229 0)
(-0.0577861 -0.525932 0)
(0.338943 -0.585196 0)
(0.78456 -0.613694 -1.40933e-20)
(1.26834 -0.614335 0)
(1.7793 -0.59256 0)
(2.30037 -0.551603 0)
(2.80843 -0.495625 0)
(3.28229 -0.427239 -1.31317e-20)
(3.7054 -0.349129 0)
(4.06791 -0.264105 0)
(4.36168 -0.174619 0)
(4.58306 -0.0820933 0)
(4.72277 0.0112567 0)
(4.78434 0.104462 0)
(4.75262 0.195691 0)
(4.62815 0.284138 -1.19081e-20)
(4.40911 0.368512 1.19064e-20)
(4.10147 0.448741 -1.19304e-20)
(3.69738 0.526209 -1.19701e-20)
(3.21268 0.594767 0)
(2.62709 0.67343 0)
(1.95982 0.711415 1.20493e-20)
(1.22162 0.594863 1.20138e-20)
(0.64375 0.316823 0)
(0.104934 0.244303 0)
(-0.418508 0.0703447 1.17576e-20)
(-0.54692 -0.281875 0)
(-0.637062 -0.282548 0)
(-0.662752 -0.252605 -1.14776e-20)
(-0.63112 -0.248846 0)
(-0.517492 -0.265573 -1.13371e-20)
(-0.3405 -0.304599 -2.25471e-20)
(-0.0523102 -0.334889 0)
(0.305613 -0.429619 0)
(0.80698 -0.522187 0)
(1.14292 -0.308085 0)
(1.6816 -0.341824 0)
(2.2104 -0.464207 -2.09872e-20)
(2.61461 -0.39226 -2.05834e-20)
(2.87732 -0.218281 -2.02234e-20)
(2.91295 -0.146076 0)
(2.88704 -0.0481033 1.99017e-20)
(2.68601 0.113466 0)
(1.93345 0.310035 -2.00061e-20)
(1.32255 0.457276 -2.01096e-20)
(1.26043 0.239349 0)
(1.44938 -0.632809 0)
(1.42336 -0.0513818 0)
(-0.0872854 0.775798 -1.96874e-20)
(-1.11151 0.725409 0)
(-2.04811 0.674835 0)
(-2.87553 0.576282 0)
(-3.6607 0.529174 0)
(-4.3661 0.466711 0)
(-5.02103 0.433577 0)
(-5.62822 0.395543 0)
(-6.19494 0.372416 0)
(-6.72849 0.345534 1.301e-20)
(-7.22469 0.323411 0)
(-7.68865 0.295441 0)
(-8.11373 0.267175 -1.07703e-20)
(-8.50595 0.237669 -1.00927e-20)
(-8.86692 0.214013 0)
(-9.21082 0.200431 8.83504e-21)
(-9.55212 0.203449 -8.24638e-21)
(-9.91368 0.22557 0)
(-10.3167 0.26609 7.12077e-21)
(-10.7805 0.318167 0)
(-11.313 0.368583 0)
(-11.9054 0.399779 -5.50452e-21)
(-12.5266 0.395043 0)
(-13.1243 0.347055 4.55866e-21)
(-13.634 0.261691 0)
(-14 0.15587 -4.04139e-21)
(-14.1906 0.0518135 -4.04004e-21)
(-14.1935 -0.0314005 -4.22231e-21)
(-14.0272 -0.0941751 -9.1473e-21)
(-13.7497 -0.151842 1.0128e-20)
(-13.373 -0.201574 0)
(-12.9163 -0.23425 0)
(-12.4072 -0.257528 0)
(-11.8577 -0.274825 1.5405e-20)
(-11.2799 -0.284277 1.68133e-20)
(-10.6842 -0.289574 -1.82023e-20)
(-10.0758 -0.292581 0)
(-9.45948 -0.292806 2.0865e-20)
(-8.83937 -0.291305 2.21136e-20)
(-8.21799 -0.288555 2.32907e-20)
(-7.59817 -0.284326 0)
(-6.98278 -0.278776 0)
(-6.3746 -0.271924 0)
(-5.77668 -0.263716 2.7062e-20)
(-5.19205 -0.254207 0)
(-4.62372 -0.243455 0)
(-4.07453 -0.231563 -2.87171e-20)
(-3.54704 -0.218678 0)
(-3.04341 -0.204998 0)
(-2.56521 -0.190788 -2.9387e-20)
(-2.11336 -0.176375 0)
(-1.68796 -0.162147 0)
(-1.28825 -0.148538 2.92932e-20)
(-0.912548 -0.136004 2.9144e-20)
(-0.558385 -0.124976 0)
(-0.22281 -0.115809 -2.87345e-20)
(0.0970168 -0.108683 0)
(0.403878 -0.103418 2.8206e-20)
(0.700906 -0.0995691 0)
(0.991178 -0.0966108 2.76295e-20)
(1.27661 -0.0939396 2.73364e-20)
(1.55744 -0.0909277 0)
(1.83214 -0.0871259 0)
(2.09779 -0.0824576 0)
(2.35072 -0.0768593 0)
(2.58691 -0.069367 0)
(2.80143 -0.058818 0)
(2.98899 -0.0469035 0)
(3.14761 -0.0370029 2.48218e-20)
(3.27931 -0.0280038 -2.44886e-20)
(3.38372 -0.0191632 0)
(3.46231 -0.0174164 0)
(3.5285 -0.0159308 0)
(3.58167 0.00633461 0)
(3.5911 0.0205706 -4.57376e-20)
(3.58033 -0.0186611 0)
(3.62335 -0.036502 4.452e-20)
(3.66139 0.0326154 -4.39489e-20)
(3.60242 0.0269063 0)
(3.59991 -0.102727 0)
(3.72571 -0.0326937 0)
(3.51891 0.259689 4.19468e-20)
(2.74739 0.301164 4.14222e-20)
(1.89571 0.0635507 0)
(1.31465 -0.109946 3.96339e-20)
(1.03819 -0.150837 3.89338e-20)
(1.02575 -0.126845 -3.86094e-20)
(1.15183 -0.0824942 0)
(1.27195 -0.0423315 0)
(1.29314 -0.010171 -3.77217e-20)
(1.24414 0.00631645 0)
(1.21032 0.0118779 0)
(1.24048 0.0320071 0)
(1.36098 0.0903531 0)
(1.45913 0.171122 3.57451e-20)
(1.3907 0.180776 3.53929e-20)
(1.27385 0.11113 0)
(1.25919 0.0777739 3.44927e-20)
(1.56316 0.0728421 0)
(2.11278 0.0349204 0)
(2.30966 0.0342043 3.34658e-20)
(1.36937 0.267341 0)
(-0.780839 0.500706 3.04304e-20)
(-2.57321 0.44136 0)
(-4.02899 0.350384 0)
(-5.22409 0.284208 1.96448e-20)
(-6.20253 0.227101 0)
(-6.95142 0.167208 1.31393e-20)
(-7.45809 0.105489 0)
(-7.72124 0.0420912 0)
(-7.73295 -0.0196561 0)
(-7.52002 -0.0768614 -1.0076e-20)
(-7.09125 -0.128527 0)
(-6.46389 -0.172822 1.36052e-20)
(-5.66113 -0.20857 0)
(-4.71764 -0.234688 0)
(-3.67745 -0.251188 0)
(-2.58188 -0.257402 0)
(-1.45944 -0.248576 0)
(-0.383315 -0.242589 0)
(0.717228 -0.215042 0)
(1.68611 -0.20178 -5.32613e-20)
(2.6315 -0.163346 0)
(3.43191 -0.116008 0)
(-0.0571797 0.518092 -4.5477e-20)
(-0.0911737 0.402534 4.51391e-20)
(-0.0818402 0.272541 0)
(-0.0353971 0.154891 -2.96435e-20)
(0.0720494 0.0850835 0)
(0.346226 -0.0851907 -1.45746e-20)
(0.738223 -0.374215 2.88847e-20)
(1.19799 -0.704396 2.85969e-20)
(1.6886 -1.01269 0)
(2.19253 -1.26389 2.79911e-20)
(2.69457 -1.43937 1.39934e-20)
(3.18305 -1.53393 0)
(3.65181 -1.55447 0)
(4.09589 -1.51333 0)
(4.50913 -1.42358 0)
(4.88476 -1.29611 1.30591e-20)
(5.21709 -1.13899 0)
(5.5005 -0.95839 -2.46321e-20)
(5.73112 -0.759283 0)
(5.90232 -0.546 0)
(6.01235 -0.322 2.36011e-20)
(6.05199 -0.0915038 0)
(6.02704 0.14223 -2.32512e-20)
(5.94031 0.373969 1.18626e-20)
(5.79032 0.599177 -1.18566e-20)
(5.58395 0.812305 1.18753e-20)
(5.31987 1.01374 1.19087e-20)
(5.01013 1.19698 0)
(4.64969 1.36656 0)
(4.24936 1.51019 -1.19638e-20)
(3.8009 1.59009 1.16105e-20)
(3.29806 1.55337 0)
(2.69563 1.38042 0)
(1.96028 1.06879 -1.16963e-20)
(1.40881 0.677363 0)
(1.00382 0.441865 0)
(0.552291 0.23182 1.14809e-20)
(0.243051 -0.22787 0)
(0.267513 -0.563646 -1.14129e-20)
(0.27303 -0.690843 2.25421e-20)
(0.4457 -0.828771 0)
(0.847311 -1.1446 0)
(1.18704 -1.27901 4.39067e-20)
(1.63764 -1.24086 4.32091e-20)
(2.19483 -1.18171 4.22941e-20)
(2.80679 -1.28196 -2.02706e-20)
(3.21064 -1.13625 2.05372e-20)
(3.55685 -0.606918 5.94741e-20)
(3.64458 -0.16593 -3.87415e-20)
(3.35588 0.153059 -1.98707e-20)
(3.13558 0.830435 0)
(2.8655 1.07211 1.99533e-20)
(2.78612 0.353819 -1.97273e-20)
(1.41784 0.55096 0)
(-0.80117 1.4958 0)
(-2.02381 1.86461 0)
(-3.25804 1.90811 1.9562e-20)
(-3.95228 1.76641 0)
(-4.7664 1.61596 -3.61737e-20)
(-5.35717 1.46119 0)
(-5.99901 1.32793 -3.33043e-20)
(-6.53291 1.21023 0)
(-7.07543 1.11543 3.01354e-20)
(-7.55633 1.03304 0)
(-8.02136 0.962401 -2.69376e-20)
(-8.44429 0.893838 1.24248e-20)
(-8.84311 0.827388 0)
(-9.21009 0.760111 2.24423e-20)
(-9.55597 0.698264 1.07358e-20)
(-9.88542 0.646552 1.00621e-20)
(-10.2111 0.613625 0)
(-10.5448 0.605536 8.55522e-21)
(-10.8985 0.627242 8.22259e-21)
(-11.2802 0.678406 0)
(-11.6932 0.75291 -7.09948e-21)
(-12.1344 0.836336 1.28549e-20)
(-12.5951 0.906616 0)
(-13.0599 0.93713 5.48955e-21)
(-13.5044 0.903353 0)
(-13.8926 0.791155 -1.29608e-20)
(-14.1815 0.602378 0)
(-14.3376 0.35712 1.13621e-20)
(-14.3542 0.0914612 4.03879e-21)
(-14.2549 -0.154639 -3.62414e-21)
(-14.0519 -0.360936 -8.10642e-21)
(-13.7256 -0.53107 9.21371e-21)
(-13.3103 -0.66602 0)
(-12.8338 -0.762791 0)
(-12.308 -0.828637 0)
(-11.7518 -0.872064 -4.55634e-20)
(-11.1749 -0.898458 -1.68014e-20)
(-10.5815 -0.91307 1.81891e-20)
(-9.97801 -0.919438 0)
(-9.36789 -0.919666 2.03496e-20)
(-8.75288 -0.915289 -2.20968e-20)
(-8.1359 -0.906917 -2.3273e-20)
(-7.51943 -0.894708 0)
(-6.90601 -0.878732 0)
(-6.2988 -0.858955 0)
(-5.70093 -0.835389 -2.7043e-20)
(-5.11575 -0.808152 0)
(-4.54653 -0.777469 5.63544e-20)
(-3.99638 -0.743695 8.59538e-20)
(-3.4681 -0.707293 -5.79277e-20)
(-2.96402 -0.668827 0)
(-2.4858 -0.628977 -2.92815e-20)
(-2.03428 -0.588537 0)
(-1.60935 -0.548422 -5.86837e-20)
(-1.20995 -0.509702 2.92109e-20)
(-0.834061 -0.47358 2.90633e-20)
(-0.478889 -0.441234 0)
(-0.141192 -0.413681 8.61015e-20)
(0.182315 -0.391646 -5.68655e-20)
(0.494827 -0.375106 -2.81932e-20)
(0.799762 -0.363155 0)
(1.10043 -0.354331 -2.76168e-20)
(1.39917 -0.346793 -8.18977e-20)
(1.69684 -0.338516 0)
(1.99263 -0.32759 -5.33952e-20)
(2.28404 -0.312543 -5.27927e-20)
(2.56685 -0.292664 -5.21775e-20)
(2.83566 -0.268147 0)
(3.08585 -0.239658 0)
(3.31457 -0.208106 0)
(3.51745 -0.175561 2.47875e-20)
(3.68803 -0.144217 2.44743e-20)
(3.8264 -0.113779 0)
(3.93594 -0.0867394 4.76135e-20)
(4.01018 -0.0699899 4.6966e-20)
(4.05728 -0.0544209 0)
(4.11081 -0.0239125 4.57123e-20)
(4.1417 -0.00595172 9.01674e-20)
(4.09194 -0.0269848 -4.44988e-20)
(4.05408 -0.0315829 -4.39022e-20)
(4.08576 -0.00815422 0)
(4.04685 -0.04468 0)
(3.99181 -0.0593811 0)
(4.10674 0.15191 -4.19096e-20)
(4.25096 0.474416 4.10469e-20)
(4.27806 0.650937 8.07372e-20)
(4.2102 0.566462 -3.95022e-20)
(4.10217 0.286644 3.90094e-20)
(3.92039 0.0374342 3.84944e-20)
(3.69393 -0.0252948 0)
(3.44296 0.0290969 0)
(3.16351 0.0694682 -3.75942e-20)
(2.88166 0.0515092 0)
(2.63983 -0.00759379 0)
(2.45559 -0.09662 7.2566e-20)
(2.349 -0.168544 0)
(2.36659 -0.122584 3.57092e-20)
(2.45719 0.012014 -3.53562e-20)
(2.4181 0.0663009 0)
(2.35415 -0.107092 3.44941e-20)
(2.75455 -0.380412 0)
(3.11411 -0.262931 0)
(2.19297 0.397783 -3.34607e-20)
(-0.178385 1.20099 6.45173e-20)
(-2.2792 1.42173 -3.03615e-20)
(-3.50257 1.19403 0)
(-4.60356 0.979954 0)
(-5.54448 0.803617 1.86898e-20)
(-6.33112 0.642035 0)
(-6.93529 0.467674 1.22944e-20)
(-7.33141 0.28658 0)
(-7.52257 0.101611 0)
(-7.50202 -0.0800668 0)
(-7.25549 -0.251133 1.0076e-20)
(-6.79391 -0.406469 0)
(-6.13303 -0.541296 -1.36013e-20)
(-5.29853 -0.652246 0)
(-4.32562 -0.734728 0)
(-3.25943 -0.786727 4.15049e-20)
(-2.14176 -0.809431 -4.56286e-20)
(-1.0137 -0.8064 0)
(0.0811396 -0.764907 0)
(1.1671 -0.730147 0)
(2.16438 -0.641305 1.59134e-19)
(3.09617 -0.582277 0)
(3.90525 -0.443069 -1.04817e-19)
(0.057498 0.512338 3.46988e-24)
(0.106928 0.577775 -6.01405e-20)
(0.181938 0.397568 0)
(0.307377 0.172777 5.92203e-20)
(0.662421 -0.277033 0)
(1.18906 -0.856463 0)
(1.78331 -1.42446 -1.08972e-22)
(2.3697 -1.90105 -2.8443e-20)
(2.90533 -2.25193 -2.78381e-20)
(3.3745 -2.47154 -2.78486e-20)
(3.77859 -2.57038 0)
(4.12745 -2.56696 0)
(4.4337 -2.48342 2.61447e-20)
(4.70861 -2.34065 5.13758e-20)
(4.96023 -2.15503 -5.0443e-20)
(5.19303 -1.93751 0)
(5.40809 -1.69434 -4.85944e-20)
(5.60386 -1.42913 2.46101e-20)
(5.77631 -1.14434 0)
(5.92129 -0.84269 -4.62453e-20)
(6.03178 -0.526868 -2.35942e-20)
(6.10434 -0.202013 4.52599e-20)
(6.12945 0.128266 2.32408e-20)
(6.10226 0.457149 0)
(6.02204 0.776955 -4.47981e-20)
(5.89327 1.07889 -4.49166e-20)
(5.72231 1.35749 0)
(5.51753 1.60661 -4.53763e-20)
(5.28908 1.82378 0)
(5.03946 2.0066 -4.58775e-20)
(4.77397 2.13685 -2.34515e-20)
(4.4618 2.19714 0)
(4.09265 2.15956 0)
(3.63824 1.99879 0)
(3.13253 1.69383 0)
(2.61619 1.28698 0)
(2.12098 0.856387 0)
(1.78824 0.458974 -4.61343e-20)
(1.5851 0.132181 6.86203e-20)
(1.34331 -0.361649 0)
(1.27073 -0.913813 0)
(1.43096 -1.52138 0)
(1.53171 -1.70534 2.42038e-22)
(2.07836 -2.17171 -4.31207e-20)
(2.63046 -2.31402 -8.40817e-20)
(2.9501 -2.07731 8.16476e-20)
(2.99339 -1.68511 3.91405e-20)
(2.93677 -0.72348 -3.93311e-20)
(2.8308 -0.0770766 1.188e-21)
(2.57567 0.288011 -3.74354e-20)
(2.1056 1.01873 0)
(1.00147 1.7036 -3.84527e-20)
(-0.452045 2.36526 8.94872e-22)
(-2.04524 2.98696 0)
(-3.20775 3.18923 0)
(-3.9034 3.03218 3.78591e-20)
(-4.51565 2.85306 0)
(-4.92725 2.63117 0)
(-5.42131 2.40212 -3.34642e-20)
(-5.80197 2.19926 -6.69713e-20)
(-6.26248 2.01454 3.3254e-20)
(-6.66378 1.86126 0)
(-7.09969 1.72491 -3.01072e-20)
(-7.49699 1.60388 0)
(-7.89667 1.48925 -2.52694e-20)
(-8.2618 1.37939 -2.53736e-20)
(-8.60772 1.27404 4.63477e-20)
(-8.92118 1.1757 2.11586e-20)
(-9.21514 1.09108 0)
(-9.4928 1.02778 -3.8514e-20)
(-9.76865 0.994958 0)
(-10.0533 0.998217 -5.1271e-20)
(-10.3601 1.03935 -3.16907e-20)
(-10.6995 1.11394 -2.94794e-20)
(-11.081 1.2124 2.72109e-20)
(-11.5102 1.31835 -3.76926e-20)
(-11.9874 1.40752 0)
(-12.4992 1.44512 0)
(-13.0089 1.38892 1.71505e-20)
(-13.4544 1.20378 2.33109e-20)
(-13.768 0.886459 0)
(-13.9073 0.479407 -7.32826e-21)
(-13.8709 0.0500349 0)
(-13.6856 -0.347856 2.1723e-20)
(-13.3872 -0.686754 1.59005e-21)
(-13.0059 -0.955831 -1.37404e-21)
(-12.5617 -1.15746 -2.06074e-20)
(-12.0739 -1.30028 0)
(-11.5614 -1.39336 2.63098e-20)
(-11.0333 -1.45093 9.6998e-22)
(-10.4931 -1.48621 0)
(-9.94449 -1.50539 0)
(-9.38891 -1.51293 0)
(-8.82641 -1.51287 -4.11948e-20)
(-8.25776 -1.50653 0)
(-7.68406 -1.49398 0)
(-7.10685 -1.47518 0)
(-6.52844 -1.44978 0)
(-5.95156 -1.41747 0)
(-5.37947 -1.37821 -5.34388e-20)
(-4.81576 -1.33219 0)
(-4.26418 -1.2799 -5.63319e-20)
(-3.72855 -1.22209 -5.72318e-20)
(-3.21257 -1.15982 5.79061e-20)
(-2.71981 -1.09443 0)
(-2.25339 -1.02753 5.8635e-20)
(-1.81568 -0.960836 0)
(-1.40783 -0.895983 5.86669e-20)
(-1.02938 -0.834492 -5.84772e-20)
(-0.677988 -0.777765 -1.74317e-19)
(-0.349742 -0.727078 0)
(-0.0398809 -0.683686 -1.71819e-19)
(0.256441 -0.648796 -5.65876e-20)
(0.543849 -0.622754 0)
(0.826856 -0.604573 -1.11162e-19)
(1.10923 -0.592136 -1.10012e-19)
(1.39323 -0.582502 1.63416e-19)
(1.67932 -0.572317 0)
(1.96631 -0.558367 5.33776e-20)
(2.25179 -0.538106 5.27761e-20)
(2.53284 -0.509865 1.5633e-19)
(2.80627 -0.472902 0)
(3.06865 -0.427646 0)
(3.31625 -0.375528 0)
(3.5448 -0.318287 4.95058e-20)
(3.74791 -0.258908 0)
(3.91911 -0.202461 0)
(4.05853 -0.152644 -4.76008e-20)
(4.1677 -0.109793 -4.69535e-20)
(4.24053 -0.0722204 0)
(4.28214 -0.0347635 0)
(4.30844 -0.00143571 -9.01488e-20)
(4.3052 0.010171 0)
(4.27532 0.0168769 8.78096e-20)
(4.28006 0.0466252 8.66137e-20)
(4.27936 0.0460386 0)
(4.18088 0.0150814 0)
(4.15004 0.118675 -8.33809e-20)
(4.37302 0.39132 -2.34784e-22)
(4.71767 0.599572 -1.32475e-23)
(4.97597 0.533875 0)
(5.03118 0.268995 -1.55805e-19)
(4.88984 0.053655 0)
(4.71161 0.0170077 0)
(4.6272 0.125904 0)
(4.59781 0.271434 7.51143e-20)
(4.47112 0.348333 0)
(4.16808 0.317157 -1.46471e-19)
(3.78888 0.183066 -7.24544e-20)
(3.4548 0.0044125 0)
(3.25595 -0.0486447 -7.13587e-20)
(3.18214 0.137621 0)
(3.05358 0.26833 0)
(3.00576 -0.0453839 -2.06855e-19)
(3.18735 -0.349732 1.36664e-19)
(2.89916 0.0988763 0)
(1.23385 1.23269 1.33464e-19)
(-1.15421 2.26039 -6.44554e-20)
(-2.2869 2.25588 0)
(-3.22803 1.85863 0)
(-4.2324 1.57077 0)
(-5.20946 1.30549 -1.12123e-19)
(-6.031 1.04361 0)
(-6.67169 0.757896 -2.54218e-20)
(-7.08318 0.460669 0)
(-7.2664 0.158744 0)
(-7.21564 -0.140681 0)
(-6.9365 -0.424448 0)
(-6.44562 -0.68266 0)
(-5.76058 -0.907518 0)
(-4.90761 -1.0933 -6.15747e-20)
(-3.92301 -1.2335 0)
(-2.84673 -1.32231 -4.14802e-20)
(-1.71944 -1.34842 1.35716e-19)
(-0.625151 -1.34825 0)
(0.471441 -1.27209 0)
(1.48576 -1.2236 -1.03889e-19)
(2.49572 -1.06537 -1.05823e-19)
(3.38786 -0.965418 1.04878e-19)
(4.17674 -0.747372 1.04735e-19)
(0.0165517 0.246376 9.08914e-20)
(0.0679016 0.425592 9.02525e-20)
(0.237722 0.0783497 5.96526e-20)
(0.793478 -0.888307 2.94318e-20)
(1.45351 -1.8238 0)
(2.08922 -2.53353 -5.73152e-20)
(2.63081 -2.99307 2.79095e-20)
(3.04831 -3.23395 0)
(3.34337 -3.30348 2.77731e-20)
(3.54027 -3.2501 0)
(3.67123 -3.11574 -5.29043e-20)
(3.76778 -2.93492 0)
(3.85582 -2.73195 -2.61742e-20)
(3.9527 -2.51944 -5.1459e-20)
(4.06676 -2.29941 5.05436e-20)
(4.19852 -2.0671 0)
(4.34305 -1.81537 4.87141e-20)
(4.49285 -1.53827 0)
(4.64003 -1.23304 0)
(4.77749 -0.899302 4.63727e-20)
(4.9003 -0.540999 0)
(5.00234 -0.163177 -1.35235e-21)
(5.08334 0.225234 0)
(5.13734 0.612965 0)
(5.15797 0.988316 1.37414e-21)
(5.14315 1.3404 4.49804e-20)
(5.09627 1.65933 4.38558e-20)
(5.01956 1.9377 4.53967e-20)
(4.92066 2.17097 0)
(4.80181 2.36157 9.07602e-20)
(4.66996 2.50578 0)
(4.51671 2.60035 4.56003e-20)
(4.33124 2.63606 0)
(4.09438 2.58154 0)
(3.77965 2.38926 -4.64679e-20)
(3.38533 2.04193 0)
(2.97089 1.55357 4.67999e-20)
(2.56337 1.01842 -8.2215e-22)
(2.28209 0.467536 -9.26133e-20)
(2.01544 -0.029246 9.31773e-20)
(1.94786 -0.597921 0)
(1.70522 -1.18784 0)
(1.91593 -2.06486 4.56548e-20)
(2.07116 -2.58969 0)
(2.02074 -2.46894 4.19077e-20)
(1.68777 -1.6426 -4.05895e-20)
(1.35911 -1.10434 -3.93055e-20)
(0.835731 0.0522993 0)
(0.054672 1.2919 3.77566e-20)
(-0.749227 2.22316 3.75063e-20)
(-1.62677 3.11943 -7.43062e-20)
(-2.60694 3.82523 3.8223e-20)
(-3.41811 4.24651 3.86589e-20)
(-4.017 4.28941 0)
(-4.32271 4.05427 0)
(-4.60047 3.75337 -3.77705e-20)
(-4.86353 3.47223 0)
(-5.15574 3.19375 0)
(-5.49147 2.94633 6.94845e-20)
(-5.82784 2.73167 6.69186e-20)
(-6.20225 2.54365 0)
(-6.55962 2.38388 0)
(-6.93414 2.23507 0)
(-7.2862 2.09247 0)
(-7.63105 1.94735 5.21841e-20)
(-7.94494 1.80071 -4.741e-20)
(-8.23762 1.65504 -4.63529e-20)
(-8.50253 1.51912 -8.56771e-20)
(-8.75034 1.40501 0)
(-8.98511 1.32589 1.27815e-21)
(-9.21976 1.29418 0)
(-9.46617 1.31724 3.39197e-20)
(-9.74103 1.39663 1.01322e-21)
(-10.0607 1.52605 2.94945e-20)
(-10.4406 1.69112 -2.72223e-20)
(-10.8875 1.86517 1.23114e-21)
(-11.3919 2.00354 0)
(-11.9165 2.03992 -1.7894e-20)
(-12.3944 1.90156 -1.71553e-20)
(-12.7451 1.54866 -2.73627e-20)
(-12.9112 1.01418 0)
(-12.8863 0.398115 1.0089e-20)
(-12.7055 -0.191752 0)
(-12.4138 -0.697154 -2.5768e-20)
(-12.045 -1.11084 1.56931e-20)
(-11.6203 -1.43725 -1.79985e-20)
(-11.1613 -1.67502 2.06367e-20)
(-10.6895 -1.83135 4.43293e-20)
(-10.2153 -1.92741 -2.63433e-20)
(-9.74077 -1.98518 2.92399e-20)
(-9.26631 -2.01866 0)
(-8.79104 -2.03659 -6.75862e-20)
(-8.31249 -2.0451 0)
(-7.82858 -2.04735 -7.87668e-20)
(-7.33852 -2.04383 8.41227e-20)
(-6.84255 -2.03377 8.92323e-20)
(-6.34157 -2.01603 -9.40226e-20)
(-5.83704 -1.98945 -9.84275e-20)
(-5.33081 -1.953 0)
(-4.82495 -1.90605 -5.24409e-20)
(-4.3218 -1.84851 0)
(-3.8239 -1.78078 0)
(-3.33388 -1.70362 -1.13331e-19)
(-2.85446 -1.61797 0)
(-2.38863 -1.52514 0)
(-1.93958 -1.42727 -1.16526e-19)
(-1.51104 -1.32738 0)
(-1.10738 -1.22916 0)