/*--------------------------------*- C++ -*----------------------------------*\
  =========                 |
  \\      /  F ield         | OpenFOAM: The Open Source CFD Toolbox
   \\    /   O peration     | Website:  https://openfoam.org
    \\  /    A nd           | Version:  6
     \\/     M anipulation  |
\*---------------------------------------------------------------------------*/
FoamFile
{
    version     2.0;
    format      ascii;
    class       volVectorField;
    location    "0.25";
    object      UMean;
}
// * * * * * * * * * * * * * * * * * * * * * * * * * * * * * * * * * * * * * //

dimensions      [0 1 -1 0 0 0 0];

internalField   nonuniform List<vector> 
12225
(
(9.83192 0.0210638 0)
(9.53506 0.0345873 0)
(9.24017 0.0373917 0)
(8.94141 0.0385327 0)
(8.64605 0.0396348 0)
(8.36023 0.0405196 0)
(8.08607 0.0409138 0)
(7.82302 0.0411127 0)
(7.56997 0.040996 0)
(7.32566 0.0411415 0)
(7.08934 0.0409616 0)
(6.85963 0.0415721 0)
(6.63559 0.0416239 0)
(6.41466 0.043409 0)
(6.19558 0.0444569 0)
(5.97283 0.048653 0)
(5.7469 0.0531836 0)
(5.49966 0.0559617 0)
(10.011 0.0400595 0)
(10.0749 0.0682846 0)
(10.118 0.0734151 0)
(10.1349 0.0754862 0)
(10.1333 0.0784455 0)
(10.1205 0.0813975 0)
(10.0999 0.0838119 0)
(10.0728 0.0856618 0)
(10.0392 0.0874569 0)
(9.99993 0.0891059 0)
(9.95468 0.091233 0)
(9.90479 0.0932883 0)
(9.84902 0.096536 0)
(9.78888 0.099807 0)
(9.72183 0.105752 0)
(9.64879 0.111979 0)
(9.56789 0.122783 0)
(9.47169 0.132444 0)
(9.99709 0.0354938 0)
(10.0295 0.0630097 0)
(10.0608 0.0660084 0)
(10.0809 0.0660018 0)
(10.093 0.0682054 0)
(10.1023 0.0713415 0)
(10.111 0.0741835 0)
(10.1191 0.0766921 0)
(10.1261 0.0791493 0)
(10.1313 0.0818747 0)
(10.135 0.0849953 0)
(10.1363 0.0886982 0)
(10.1365 0.0933131 0)
(10.1337 0.0990123 0)
(10.1308 0.106887 0)
(10.1241 0.116411 0)
(10.1198 0.129826 0)
(10.1102 0.142117 0)
(10.0097 0.0274897 0)
(10.0332 0.0541555 0)
(10.0584 0.0587708 0)
(10.0751 0.0594507 0)
(10.0843 0.0622766 0)
(10.0904 0.0662738 0)
(10.096 0.0700382 0)
(10.1016 0.0733066 0)
(10.1069 0.0764427 0)
(10.1114 0.0797413 0)
(10.115 0.0834786 0)
(10.1179 0.08779 0)
(10.12 0.0930385 0)
(10.1217 0.0995224 0)
(10.1232 0.107814 0)
(10.1255 0.118298 0)
(10.1288 0.130895 0)
(10.1359 0.145213 0)
(9.99044 0.0216421 0)
(10.0095 0.0480286 0)
(10.0326 0.0556845 0)
(10.0498 0.0579157 0)
(10.0601 0.0612083 0)
(10.0668 0.0655488 0)
(10.0727 0.0696873 0)
(10.0784 0.0732388 0)
(10.0837 0.0765309 0)
(10.0883 0.0799184 0)
(10.0919 0.0837416 0)
(10.0948 0.0881529 0)
(10.097 0.0935084 0)
(10.099 0.100018 0)
(10.1007 0.108135 0)
(10.1036 0.118012 0)
(10.1074 0.129447 0)
(10.1144 0.142236 0)
(9.9948 0.0152953 0)
(10.0089 0.0408853 0)
(10.0282 0.0512542 0)
(10.0442 0.0551218 0)
(10.0543 0.0587138 0)
(10.0608 0.0630893 0)
(10.0663 0.0674093 0)
(10.0717 0.071235 0)
(10.0768 0.0747637 0)
(10.0813 0.0783859 0)
(10.0849 0.0824047 0)
(10.088 0.0870695 0)
(10.0904 0.0925684 0)
(10.0928 0.0992001 0)
(10.0953 0.10706 0)
(10.0986 0.116401 0)
(10.1029 0.126674 0)
(10.1093 0.137709 0)
(9.99475 0.0117813 0)
(10.0051 0.0349671 0)
(10.0213 0.0465699 0)
(10.036 0.0514934 0)
(10.046 0.0551403 0)
(10.0526 0.0593448 0)
(10.0579 0.0637293 0)
(10.0631 0.0678097 0)
(10.0681 0.0716305 0)
(10.0727 0.0755232 0)
(10.0767 0.0797872 0)
(10.0801 0.0846721 0)
(10.0831 0.0903166 0)
(10.0861 0.0969472 0)
(10.0892 0.10455 0)
(10.0932 0.113268 0)
(10.098 0.122545 0)
(10.1044 0.132253 0)
(9.99848 0.0140926 0)
(10.0068 0.0341819 0)
(10.0205 0.0459812 0)
(10.0339 0.051569 0)
(10.0438 0.0551826 0)
(10.0506 0.0590271 0)
(10.0559 0.0631883 0)
(10.061 0.0672473 0)
(10.066 0.0711204 0)
(10.0705 0.0750583 0)
(10.0746 0.0793324 0)
(10.0783 0.0841934 0)
(10.0817 0.0897378 0)
(10.0851 0.096136 0)
(10.0889 0.103292 0)
(10.0934 0.111287 0)
(10.0987 0.119607 0)
(10.1051 0.128262 0)
(10.0033 0.00852375 0)
(10.0098 0.0271949 0)
(10.0212 0.0395569 0)
(10.0332 0.0464229 0)
(10.0429 0.0508803 0)
(10.0499 0.055121 0)
(10.0554 0.0596079 0)
(10.0606 0.0640861 0)
(10.0657 0.0684109 0)
(10.0705 0.0727455 0)
(10.075 0.0773086 0)
(10.0792 0.082342 0)
(10.0832 0.0879105 0)
(10.0872 0.0941669 0)
(10.0916 0.100964 0)
(10.0965 0.108407 0)
(10.1021 0.115994 0)
(10.1087 0.123919 0)
(10.0006 0.00420993 0)
(10.0059 0.0212238 0)
(10.0155 0.0333255 0)
(10.0262 0.0407749 0)
(10.0354 0.0457239 0)
(10.0426 0.0501184 0)
(10.0483 0.0546364 0)
(10.0536 0.0591887 0)
(10.0588 0.0636314 0)
(10.0639 0.0680684 0)
(10.0687 0.0726885 0)
(10.0734 0.0777151 0)
(10.0779 0.0832044 0)
(10.0826 0.0892579 0)
(10.0875 0.0957194 0)
(10.0929 0.10265 0)
(10.0988 0.10964 0)
(10.1056 0.116855 0)
(10.0069 0.0101716 0)
(10.0111 0.0249519 0)
(10.0191 0.0360434 0)
(10.0284 0.0433953 0)
(10.0368 0.0484125 0)
(10.0436 0.0526569 0)
(10.0494 0.0568858 0)
(10.0547 0.0611849 0)
(10.0599 0.0654542 0)
(10.0651 0.0697455 0)
(10.0701 0.0741788 0)
(10.075 0.0789426 0)
(10.0799 0.0840662 0)
(10.0849 0.089651 0)
(10.0901 0.095522 0)
(10.096 0.10178 0)
(10.1021 0.107995 0)
(10.1092 0.114451 0)
(9.99797 0.00149207 0)
(10.0016 0.015333 0)
(10.0089 0.0261626 0)
(10.0174 0.0339366 0)
(10.0255 0.0395629 0)
(10.0324 0.0442529 0)
(10.0384 0.0487638 0)
(10.0439 0.0533145 0)
(10.0493 0.0578626 0)
(10.0547 0.0624321 0)
(10.06 0.067083 0)
(10.0652 0.0719694 0)
(10.0704 0.0770935 0)
(10.0757 0.0825614 0)
(10.0812 0.0881847 0)
(10.0873 0.0940995 0)
(10.0935 0.0998724 0)
(10.1007 0.105853 0)
(9.99723 0.00509491 0)
(9.99985 0.0172701 0)
(10.0059 0.0271714 0)
(10.0134 0.0346227 0)
(10.0208 0.040206 0)
(10.0275 0.0448237 0)
(10.0334 0.0491431 0)
(10.039 0.0534522 0)
(10.0445 0.0577825 0)
(10.0501 0.0621649 0)
(10.0557 0.066626 0)
(10.0613 0.0712807 0)
(10.0669 0.076112 0)
(10.0727 0.0812077 0)
(10.0786 0.0863869 0)
(10.0849 0.0917708 0)
(10.0914 0.096969 0)
(10.0984 0.102306 0)
(9.99791 0.0038237 0)
(9.99999 0.0143097 0)
(10.005 0.0230841 0)
(10.0115 0.0299611 0)
(10.0181 0.0353768 0)
(10.0244 0.0399667 0)
(10.0302 0.0442321 0)
(10.0358 0.0484381 0)
(10.0413 0.0526404 0)
(10.047 0.056879 0)
(10.0526 0.0611576 0)
(10.0584 0.0655738 0)
(10.0643 0.07009 0)
(10.0704 0.0748072 0)
(10.0766 0.0795321 0)
(10.0832 0.0844293 0)
(10.0899 0.0890791 0)
(10.0972 0.0939002 0)
(9.99423 0.00169659 0)
(9.99603 0.01105 0)
(10.0004 0.0189674 0)
(10.0062 0.0254802 0)
(10.0123 0.0308902 0)
(10.0183 0.0355734 0)
(10.024 0.0398606 0)
(10.0297 0.0439887 0)
(10.0353 0.0480572 0)
(10.041 0.0521419 0)
(10.0468 0.0562494 0)
(10.0527 0.0604538 0)
(10.0586 0.0646962 0)
(10.0647 0.0690572 0)
(10.0709 0.0733484 0)
(10.0774 0.0777317 0)
(10.084 0.0818279 0)
(10.091 0.0860474 0)
(10.0054 0.0008557 0)
(10.0064 0.00871069 0)
(10.0099 0.0154654 0)
(10.0147 0.0212302 0)
(10.0202 0.0261748 0)
(10.0258 0.0305237 0)
(10.0315 0.0345109 0)
(10.0373 0.0383388 0)
(10.043 0.042106 0)
(10.0489 0.0458798 0)
(10.0549 0.0496454 0)
(10.0609 0.0534489 0)
(10.0671 0.0572222 0)
(10.0735 0.0610424 0)
(10.0799 0.0647437 0)
(10.0865 0.0684949 0)
(10.0932 0.0719534 0)
(10.1002 0.0755277 0)
(9.99565 0.00275505 0)
(9.99662 0.00824131 0)
(9.99997 0.0131838 0)
(10.0046 0.0176488 0)
(10.0099 0.0216658 0)
(10.0154 0.0253212 0)
(10.0212 0.0287407 0)
(10.0271 0.0320557 0)
(10.0331 0.0353294 0)
(10.0393 0.0386092 0)
(10.0455 0.0418693 0)
(10.0519 0.0451436 0)
(10.0584 0.0483599 0)
(10.065 0.0515912 0)
(10.0717 0.0546821 0)
(10.0785 0.057802 0)
(10.0853 0.0606343 0)
(10.0923 0.0635776 0)
(9.99851 0.0016734 0)
(9.99953 0.00502373 0)
(10.0026 0.00830984 0)
(10.007 0.0114612 0)
(10.012 0.0144516 0)
(10.0175 0.0172978 0)
(10.0233 0.0200382 0)
(10.0293 0.0227356 0)
(10.0355 0.0254157 0)
(10.0418 0.0281082 0)
(10.0482 0.0307835 0)
(10.0547 0.0334664 0)
(10.0613 0.0360884 0)
(10.0681 0.0387096 0)
(10.0748 0.0411921 0)
(10.0816 0.04368 0)
(10.0884 0.0459024 0)
(10.0953 0.0482004 0)
(9.99506 0.000876628 0)
(9.99629 0.00222429 0)
(9.99966 0.00376824 0)
(10.0043 0.00543398 0)
(10.0095 0.00719316 0)
(10.0152 0.00902018 0)
(10.0211 0.0108854 0)
(10.0272 0.0127914 0)
(10.0335 0.0147316 0)
(10.04 0.016709 0)
(10.0465 0.0186763 0)
(10.0531 0.0206364 0)
(10.0598 0.0225266 0)
(10.0665 0.0244023 0)
(10.0732 0.0261626 0)
(10.08 0.0279383 0)
(10.0867 0.0295128 0)
(10.0933 0.0311701 0)
(10.0006 -0.001616 0)
(10.0019 -0.00245567 0)
(10.0057 -0.00286287 0)
(10.0107 -0.00272822 0)
(10.0164 -0.00209468 0)
(10.0225 -0.00111464 0)
(10.0287 4.51126e-05 0)
(10.035 0.00128836 0)
(10.0415 0.00256944 0)
(10.0481 0.00388817 0)
(10.0548 0.00521603 0)
(10.0615 0.00655757 0)
(10.0682 0.00785895 0)
(10.0749 0.00915524 0)
(10.0815 0.0103609 0)
(10.0881 0.0115734 0)
(10.0947 0.0126239 0)
(10.1012 0.0137334 0)
(10.0074 -0.000546567 0)
(10.009 -0.00373375 0)
(10.0132 -0.0060396 0)
(10.0189 -0.00725965 0)
(10.0252 -0.00758754 0)
(10.0316 -0.00738348 0)
(10.0381 -0.0069457 0)
(10.0446 -0.00639926 0)
(10.0512 -0.00575922 0)
(10.058 -0.00500272 0)
(10.0648 -0.00415561 0)
(10.0716 -0.00324237 0)
(10.0783 -0.00233571 0)
(10.085 -0.0014319 0)
(10.0917 -0.000605259 0)
(10.0983 0.000218473 0)
(10.1048 0.000912999 0)
(10.1112 0.00165391 0)
(10.0116 -0.00194361 0)
(10.0139 -0.0073606 0)
(10.0189 -0.0112648 0)
(10.0255 -0.0135203 0)
(10.0325 -0.0144985 0)
(10.0393 -0.014784 0)
(10.046 -0.0147945 0)
(10.0527 -0.0146665 0)
(10.0595 -0.0143997 0)
(10.0664 -0.0139804 0)
(10.0733 -0.0134569 0)
(10.0803 -0.0128765 0)
(10.0871 -0.0123101 0)
(10.0938 -0.0117537 0)
(10.1005 -0.0112594 0)
(10.1071 -0.0107602 0)
(10.1136 -0.0103568 0)
(10.12 -0.00990492 0)
(9.99808 -0.00354646 0)
(10.0012 -0.0111046 0)
(10.0078 -0.0163618 0)
(10.0158 -0.0191963 0)
(10.0238 -0.0204058 0)
(10.031 -0.0209347 0)
(10.0379 -0.0212762 0)
(10.0446 -0.0215009 0)
(10.0515 -0.0215521 0)
(10.0585 -0.0214086 0)
(10.0656 -0.021127 0)
(10.0726 -0.0207676 0)
(10.0795 -0.0204044 0)
(10.0863 -0.0200477 0)
(10.093 -0.0197479 0)
(10.0996 -0.0194579 0)
(10.106 -0.0192532 0)
(10.1124 -0.0190228 0)
(9.99705 -0.00497966 0)
(10.0015 -0.0148752 0)
(10.01 -0.0212746 0)
(10.0196 -0.0243802 0)
(10.0284 -0.0257148 0)
(10.0359 -0.0265338 0)
(10.0427 -0.027245 0)
(10.0495 -0.0277843 0)
(10.0565 -0.0280708 0)
(10.0637 -0.0281315 0)
(10.0708 -0.0280657 0)
(10.0778 -0.0279461 0)
(10.0847 -0.027833 0)
(10.0916 -0.0277235 0)
(10.0983 -0.027651 0)
(10.1048 -0.02757 0)
(10.1113 -0.0275431 0)
(10.1175 -0.0274776 0)
(9.99984 -0.00734812 0)
(10.0061 -0.0196687 0)
(10.0169 -0.0264481 0)
(10.0283 -0.0291727 0)
(10.0377 -0.0304091 0)
(10.0454 -0.031499 0)
(10.0524 -0.032564 0)
(10.0594 -0.033379 0)
(10.0667 -0.0338639 0)
(10.0741 -0.0340942 0)
(10.0814 -0.034189 0)
(10.0886 -0.0342197 0)
(10.0955 -0.0342341 0)
(10.1024 -0.034235 0)
(10.1091 -0.0342542 0)
(10.1156 -0.0342687 0)
(10.122 -0.0343298 0)
(10.1283 -0.0343708 0)
(9.99936 -0.0116824 0)
(10.0082 -0.0264125 0)
(10.0218 -0.0324305 0)
(10.0346 -0.0339952 0)
(10.0444 -0.0348964 0)
(10.052 -0.0361936 0)
(10.0591 -0.0375443 0)
(10.0664 -0.0385582 0)
(10.0739 -0.0391804 0)
(10.0813 -0.0395382 0)
(10.0885 -0.0397623 0)
(10.0956 -0.0399218 0)
(10.1024 -0.0400485 0)
(10.1091 -0.0401521 0)
(10.1158 -0.0402526 0)
(10.1223 -0.0403499 0)
(10.1287 -0.04047 0)
(10.1349 -0.0405894 0)
(9.99596 -0.0154636 0)
(10.0088 -0.0332028 0)
(10.0256 -0.0378267 0)
(10.0396 -0.0380423 0)
(10.0493 -0.0386065 0)
(10.0569 -0.0400088 0)
(10.0642 -0.0414815 0)
(10.0718 -0.0425827 0)
(10.0796 -0.0433267 0)
(10.0873 -0.0438766 0)
(10.0948 -0.044354 0)
(10.1021 -0.0448014 0)
(10.1093 -0.0452354 0)
(10.1162 -0.0456494 0)
(10.1231 -0.0460682 0)
(10.1298 -0.0464738 0)
(10.1364 -0.0469182 0)
(10.1427 -0.0473281 0)
(10.0051 -0.0190788 0)
(10.0245 -0.039308 0)
(10.0458 -0.0426891 0)
(10.0613 -0.0419571 0)
(10.0717 -0.041957 0)
(10.0802 -0.0427466 0)
(10.0887 -0.0435329 0)
(10.0977 -0.0440245 0)
(10.1069 -0.0443005 0)
(10.1158 -0.0445182 0)
(10.1245 -0.044731 0)
(10.1328 -0.044966 0)
(10.141 -0.0451838 0)
(10.1488 -0.0454224 0)
(10.1565 -0.0456359 0)
(10.1639 -0.045908 0)
(10.1711 -0.0461646 0)
(10.1778 -0.0465659 0)
(10.0154 -0.0306286 0)
(10.0581 -0.0521278 0)
(10.0936 -0.0567455 0)
(10.1159 -0.0578068 0)
(10.1287 -0.0590986 0)
(10.1367 -0.0605512 0)
(10.1423 -0.0616534 0)
(10.1459 -0.0623183 0)
(10.1476 -0.0626845 0)
(10.1475 -0.0629178 0)
(10.1456 -0.0630761 0)
(10.1423 -0.0632116 0)
(10.1377 -0.0632934 0)
(10.1324 -0.0633777 0)
(10.1259 -0.0634094 0)
(10.1192 -0.0634793 0)
(10.1112 -0.0635122 0)
(10.1036 -0.0636459 0)
(9.90406 -0.00986712 0)
(9.73974 -0.0208671 0)
(9.57732 -0.0239854 0)
(9.41123 -0.0254196 0)
(9.24577 -0.0267201 0)
(9.08553 -0.027881 0)
(8.93251 -0.0287376 0)
(8.78678 -0.0292923 0)
(8.64768 -0.0296416 0)
(8.51474 -0.0298734 0)
(8.38747 -0.0300314 0)
(8.2659 -0.0301264 0)
(8.14952 -0.0301678 0)
(8.03865 -0.0301522 0)
(7.93225 -0.0301153 0)
(7.83132 -0.0300246 0)
(7.73371 -0.029977 0)
(7.64217 -0.0298042 0)
(-0.0605887 0.00918123 -4.29929e-23)
(-0.11733 -0.0471243 4.63783e-23)
(-0.134661 -0.0867464 0)
(-0.124596 -0.126509 0)
(-0.0619171 -0.165252 0)
(0.0380652 -0.188517 -5.64578e-23)
(0.154282 -0.196487 0)
(0.277268 -0.194973 0)
(0.404576 -0.18831 0)
(0.531995 -0.17561 0)
(0.652551 -0.158828 1.34049e-22)
(0.762836 -0.143122 0)
(0.862867 -0.127989 0)
(0.949978 -0.109361 0)
(1.02034 -0.0878862 0)
(1.0726 -0.0670783 2.97207e-22)
(1.10741 -0.0477551 0)
(1.12543 -0.0292891 0)
(1.12666 -0.0103663 0)
(1.11066 0.00973409 0)
(1.07637 0.0320326 0)
(1.02185 0.0526278 0)
(0.949285 0.0665437 0)
(0.865887 0.0705858 3.06684e-22)
(0.770332 0.0700681 -2.94733e-22)
(0.671222 0.0521227 2.83956e-22)
(0.575538 0.0271225 2.75191e-22)
(0.478186 0.00490737 0)
(0.391199 -0.0243945 0)
(0.320308 -0.0177365 -2.64824e-22)
(0.230616 0.0195998 -2.65848e-22)
(0.142056 0.0304527 0)
(0.0385941 0.0209525 0)
(-0.0573303 0.00951856 -2.91937e-22)
(-0.154322 0.00372441 0)
(-0.253763 0.0239172 0)
(-0.366585 0.0323715 3.41144e-22)
(-0.468256 0.0249749 0)
(-0.571727 0.0239415 3.85406e-22)
(-0.685667 0.0385434 8.26136e-22)
(-0.811915 0.0531501 0)
(-0.943046 0.0546581 0)
(-1.05815 0.0295986 0)
(-1.143 0.0020841 0)
(-1.21324 -0.00353 0)
(-1.26003 -0.0117404 1.22916e-21)
(-1.31885 -0.023936 1.28435e-21)
(-1.35452 -0.0326115 1.3331e-21)
(-1.39653 -0.0188966 0)
(-1.47991 0.0150066 -1.40116e-21)
(-1.57454 0.0247989 0)
(-1.65285 0.0210051 1.4632e-21)
(-1.73151 0.0122136 1.49224e-21)
(-1.79981 0.0213782 0)
(-1.90034 0.0257083 0)
(-2.00175 0.0355993 0)
(-2.1184 0.0463241 1.58179e-21)
(-2.23728 0.0494204 0)
(-2.33974 0.040603 0)
(-2.43969 0.0469742 0)
(-2.55571 0.0619788 0)
(-2.6674 0.0562335 0)
(-2.7604 0.0485889 0)
(-2.85077 0.0398987 0)
(-2.91945 0.0263559 0)
(-2.97287 0.0185005 -1.88655e-21)
(-3.01505 0.0124988 0)
(-3.05172 0.00566538 0)
(-3.07874 -0.00512209 1.88668e-21)
(-3.10704 -0.00927513 1.86043e-21)
(-3.13214 -0.0170293 0)
(-3.15195 -0.00532271 -1.77031e-21)
(-3.20815 0.0183061 1.71101e-21)
(-3.2734 0.0268254 0)
(-3.3448 0.0238544 -1.6e-21)
(-3.41249 0.0134275 0)
(-3.4698 0.0105421 0)
(-3.54059 0.0150596 1.47268e-21)
(-3.60669 0.0148953 0)
(-3.68481 0.00521908 -1.41398e-21)
(-3.72157 -0.00184283 0)
(-3.76065 -0.0145803 1.35782e-21)
(-3.76885 -0.0060407 1.32252e-21)
(-3.83126 0.0232178 1.2819e-21)
(-3.88291 0.0215091 2.48335e-21)
(-3.9013 0.0138192 -2.40143e-21)
(-3.90257 0.0017009 0)
(-3.8846 -0.00924236 0)
(-3.85172 -0.0221096 0)
(-3.79666 -0.0331556 -1.98016e-21)
(-3.73969 -0.0341859 -1.84506e-21)
(-3.69437 -0.0304769 1.7003e-21)
(-3.63868 -0.0243944 0)
(-3.6315 -0.00384486 -1.40973e-21)
(-3.64668 -0.00311938 -1.2873e-21)
(-3.63025 -0.0139986 -1.18308e-21)
(-3.59254 -0.0225133 0)
(-3.53747 -0.0293611 0)
(-3.47327 -0.0346805 0)
(-3.40428 -0.0385693 -6.7612e-22)
(-3.32705 -0.0402898 0)
(-3.23821 -0.0466701 0)
(-3.12837 -0.0551285 9.43288e-23)
(-3.01841 -0.0547572 0)
(-2.90298 -0.0594059 0)
(-2.77779 -0.0485188 -6.25542e-22)
(-2.70934 -0.0411595 0)
(-2.63408 -0.046204 0)
(-2.55118 -0.0432724 1.21348e-21)
(-2.4717 -0.0391517 1.35092e-21)
(-2.38784 -0.0382721 0)
(-2.29694 -0.0411669 -1.55494e-21)
(-2.19083 -0.0466851 0)
(-2.07135 -0.0509379 1.70073e-21)
(-1.94376 -0.0527526 0)
(-1.81158 -0.0529612 1.8366e-21)
(-1.67754 -0.0523634 1.9127e-21)
(-1.54365 -0.0512363 0)
(-1.41205 -0.0489419 0)
(-1.28349 -0.0481252 0)
(-1.16694 -0.0418383 0)
(-1.039 -0.0477391 0)
(-0.908188 -0.0321287 0)
(-0.865438 -0.0093893 0)
(-0.817598 -0.0123328 2.58716e-21)
(-0.746129 -0.0160874 -2.6049e-21)
(-0.669303 -0.0223275 0)
(-0.583777 -0.0325365 0)
(-0.483081 -0.0359236 0)
(-0.368773 -0.0305092 0)
(-0.270486 -0.0262295 -5.33479e-21)
(-0.200759 -0.0250946 0)
(-0.102218 -0.026432 5.56704e-21)
(-0.0934175 0.00287438 -5.66969e-21)
(-0.178243 0.0215035 0)
(-0.236301 0.0161274 0)
(-0.270944 0.0242409 0)
(-0.38346 0.032021 5.31256e-21)
(-0.447876 0.0167583 5.13294e-21)
(-0.449418 0.00513425 0)
(-0.429199 0.0014593 4.89136e-21)
(-0.394177 -0.00361689 4.87035e-21)
(-0.320841 -0.0150639 -4.91578e-21)
(-0.235777 -0.0194732 0)
(-0.172493 -0.017645 0)
(-0.109686 -0.0194277 -5.28593e-21)
(-0.0315558 -0.0230175 0)
(0.0618886 -0.0251997 0)
(0.161477 -0.026664 0)
(0.268261 -0.0290325 0)
(0.378844 -0.0303034 6.47436e-21)
(0.497635 -0.0316184 6.7615e-21)
(0.616866 -0.029914 0)
(0.747769 -0.0334021 7.29392e-21)
(0.879765 -0.0354583 0)
(0.974317 -0.0291733 0)
(1.03889 -0.0252944 7.70701e-21)
(1.11622 -0.0256645 0)
(1.21739 -0.0255859 7.62339e-21)
(1.32836 -0.0233008 0)
(1.43831 -0.0202784 0)
(1.54106 -0.0173348 7.39636e-21)
(1.63192 -0.0149661 0)
(1.71503 -0.014607 7.26732e-21)
(1.80272 -0.0156608 0)
(1.89237 -0.0166875 0)
(1.98085 -0.0188182 0)
(2.07114 -0.0211375 -7.26165e-21)
(2.16296 -0.0210396 0)
(2.25105 -0.0181691 7.34648e-21)
(2.32645 -0.0130757 0)
(2.37965 -0.00801382 0)
(2.41975 -0.00338108 0)
(2.43963 -0.00141893 0)
(2.46123 0.00273921 0)
(2.44501 0.0061299 0)
(2.43251 0.0154997 0)
(2.32822 0.0170747 -1.36787e-20)
(2.29452 0.025966 0)
(2.08824 0.0149659 0)
(-0.0273478 0.193359 1.62692e-22)
(-0.0427493 0.11071 -1.7407e-22)
(-0.0214469 0.014463 0)
(0.0582607 -0.104901 1.61162e-22)
(0.170509 -0.228349 0)
(0.289216 -0.323131 5.5517e-23)
(0.411215 -0.387522 -2.27716e-22)
(0.533739 -0.422506 -2.64032e-22)
(0.653892 -0.428932 0)
(0.767132 -0.41195 -3.68976e-22)
(0.870334 -0.37916 -1.32628e-22)
(0.96101 -0.337807 0)
(1.03814 -0.29268 0)
(1.10067 -0.246246 0)
(1.15025 -0.197877 0)
(1.18994 -0.147491 -2.96036e-22)
(1.21837 -0.0974282 0)
(1.23246 -0.047689 7.90348e-22)
(1.22998 0.00168702 0)
(1.21128 0.0496959 0)
(1.17863 0.0977205 -7.86324e-22)
(1.13001 0.144185 0)
(1.06688 0.183014 7.40917e-22)
(0.99353 0.215907 -3.05079e-22)
(0.915328 0.23541 2.92992e-22)
(0.828486 0.23982 -2.82098e-22)
(0.723537 0.249879 -2.7328e-22)
(0.597114 0.26262 0)
(0.457532 0.261797 0)
(0.313547 0.263307 2.63036e-22)
(0.160262 0.25033 -3.54689e-22)
(0.0326545 0.208321 0)
(-0.0942515 0.216535 0)
(-0.227932 0.236627 2.90109e-22)
(-0.345627 0.232331 0)
(-0.45965 0.226912 0)
(-0.573444 0.215792 -3.38786e-22)
(-0.675368 0.206301 0)
(-0.794809 0.221861 5.28821e-22)
(-0.908277 0.239161 -8.21097e-22)
(-1.01391 0.24898 0)
(-1.11216 0.239206 0)
(-1.22395 0.22495 -2.31662e-21)
(-1.33626 0.192863 -2.44817e-21)
(-1.43035 0.130965 -2.57826e-21)
(-1.54466 0.0882219 1.47843e-21)
(-1.66022 0.109168 -1.27997e-21)
(-1.77528 0.138032 -4.26056e-21)
(-1.86439 0.13377 3.02744e-21)
(-1.94403 0.131531 1.39683e-21)
(-2.01467 0.125832 0)
(-2.0948 0.139768 -1.4593e-21)
(-2.19829 0.15078 1.80853e-21)
(-2.28907 0.1527 0)
(-2.41268 0.181032 0)
(-2.55007 0.202023 0)
(-2.67835 0.205589 -1.57781e-21)
(-2.81632 0.216816 0)
(-2.9385 0.207089 3.58559e-21)
(-3.04332 0.191366 0)
(-3.14278 0.179397 3.70614e-21)
(-3.2175 0.156418 0)
(-3.27196 0.13586 -3.84175e-21)
(-3.31623 0.113913 0)
(-3.34763 0.0883089 3.96355e-21)
(-3.36959 0.0621531 -2.11733e-21)
(-3.38246 0.0406813 0)
(-3.39386 0.0250077 -4.00435e-21)
(-3.40586 0.0184127 -1.88489e-21)
(-3.43758 0.0298728 -1.85879e-21)
(-3.49084 0.0535289 0)
(-3.55139 0.0771007 -1.9652e-21)
(-3.62873 0.0914174 -1.70988e-21)
(-3.70913 0.095145 0)
(-3.80648 0.104718 1.59815e-21)
(-3.89263 0.107135 -3.34368e-21)
(-3.9589 0.0949586 0)
(-4.04384 0.093871 -1.4704e-21)
(-4.10399 0.0831896 0)
(-4.14897 0.0649856 4.47701e-21)
(-4.16724 0.0421995 0)
(-4.22628 0.0548451 -4.29693e-21)
(-4.23516 0.0477646 -1.32048e-21)
(-4.23158 0.0268843 1.51164e-21)
(-4.19982 -0.00611998 2.93361e-21)
(-4.15336 -0.0337127 -2.83011e-21)
(-4.09764 -0.0617474 0)
(-4.03984 -0.0821847 0)
(-3.99677 -0.0770836 0)
(-3.96539 -0.0705731 6.26512e-21)
(-3.9229 -0.0753452 1.8429e-21)
(-3.90292 -0.0609012 -1.69841e-21)
(-3.90321 -0.0390242 0)
(-3.89509 -0.0387204 -1.84974e-21)
(-3.86373 -0.05777 1.28631e-21)
(-3.8054 -0.0817393 1.18176e-21)
(-3.73033 -0.104821 0)
(-3.64213 -0.122795 0)
(-3.54909 -0.137006 0)
(-3.4494 -0.14693 6.75195e-22)
(-3.3454 -0.14694 0)
(-3.23703 -0.152614 -9.39448e-22)
(-3.12766 -0.16487 -5.80715e-22)
(-3.02132 -0.166853 9.18363e-24)
(-2.95042 -0.145119 0)
(-2.88567 -0.128197 -3.26516e-22)
(-2.83845 -0.122417 0)
(-2.76469 -0.12529 -1.75808e-21)
(-2.67716 -0.127448 8.71567e-22)
(-2.57435 -0.13618 1.01594e-21)
(-2.45489 -0.150342 0)
(-2.31799 -0.166064 4.36594e-21)
(-2.16917 -0.178981 -2.98795e-21)
(-2.01319 -0.186624 -1.70049e-21)
(-1.85523 -0.189077 0)
(-1.69703 -0.18784 -1.83589e-21)
(-1.54097 -0.184439 -5.53617e-21)
(-1.38835 -0.17935 0)
(-1.24169 -0.171279 -4.00813e-21)
(-1.1036 -0.159813 -4.21781e-21)
(-0.969461 -0.152411 -4.42605e-21)
(-0.888162 -0.127056 0)
(-0.806025 -0.0988867 0)
(-0.715914 -0.0938775 0)
(-0.608094 -0.0997711 2.39988e-21)
(-0.492458 -0.104615 2.6034e-21)
(-0.372144 -0.119442 0)
(-0.252103 -0.135226 5.07988e-21)
(-0.141859 -0.132388 5.09557e-21)
(-0.024104 -0.118387 0)
(0.0883507 -0.100939 5.33085e-21)
(0.162702 -0.0798243 1.06173e-20)
(0.14474 -0.0267575 -5.5612e-21)
(0.0644492 0.0215546 -5.23045e-21)
(0.0278237 0.0257783 0)
(-0.00696124 0.0347619 0)
(-0.0436675 0.0425265 0)
(-0.0635172 0.0269103 -5.31092e-21)
(-0.0317862 -0.0036605 4.64873e-21)
(0.0157464 -0.0285153 9.54005e-21)
(0.0728056 -0.0488524 -4.88733e-21)
(0.130437 -0.0641533 4.54148e-21)
(0.202894 -0.0800418 4.91071e-21)
(0.274467 -0.0859273 0)
(0.343279 -0.0870827 0)
(0.431711 -0.0943358 -4.94303e-21)
(0.535261 -0.103212 0)
(0.651353 -0.110044 0)
(0.772188 -0.114126 1.15023e-20)
(0.90188 -0.118215 0)
(1.03529 -0.121036 6.18733e-21)
(1.17417 -0.120896 -6.75501e-21)
(1.30879 -0.117016 0)
(1.44247 -0.115279 7.04278e-21)
(1.55098 -0.105154 0)
(1.6379 -0.0914724 0)
(1.72962 -0.0910703 -7.70019e-21)
(1.84539 -0.100831 1.5069e-20)
(1.97369 -0.108321 -7.6165e-21)
(2.10301 -0.106882 0)
(2.22842 -0.099009 0)
(2.34551 -0.088989 7.19429e-21)
(2.45587 -0.0815015 0)
(2.56567 -0.0794787 7.08371e-21)
(2.67927 -0.0799343 0)
(2.78998 -0.079216 0)
(2.89584 -0.0780485 0)
(2.99633 -0.0770252 7.25541e-21)
(3.09087 -0.0739796 0)
(3.17224 -0.0680594 -7.34028e-21)
(3.23373 -0.0591639 0)
(3.27733 -0.049386 0)
(3.32224 -0.0388943 1.45011e-20)
(3.35693 -0.0306071 -1.43425e-20)
(3.39451 -0.0168376 0)
(3.39511 -0.000488826 0)
(3.39171 0.0239588 0)
(3.3192 0.0372729 4.06685e-20)
(3.31386 0.0555925 0)
(3.19625 0.0551596 -2.6391e-20)
(0.00942557 0.209204 2.6107e-23)
(0.0408922 0.0991991 2.81162e-22)
(0.127493 -0.0966651 0)
(0.259039 -0.31377 -3.75268e-22)
(0.396686 -0.488886 0)
(0.524169 -0.601911 0)
(0.638078 -0.659476 -1.48733e-22)
(0.739363 -0.671114 2.61754e-22)
(0.827328 -0.646415 5.04022e-22)
(0.903014 -0.596303 3.6728e-22)
(0.967724 -0.531458 0)
(1.02103 -0.459425 0)
(1.06288 -0.38522 -7.73618e-22)
(1.09307 -0.31201 -1.65957e-21)
(1.11271 -0.240339 1.75548e-21)
(1.12428 -0.169596 0)
(1.12994 -0.100337 1.88697e-21)
(1.12362 -0.0310797 -7.90683e-22)
(1.10464 0.038963 0)
(1.07458 0.111212 1.915e-21)
(1.03419 0.181249 7.86118e-22)
(0.98335 0.24831 -1.83353e-21)
(0.922105 0.309585 -7.40166e-22)
(0.854199 0.348895 0)
(0.770466 0.383114 1.64477e-21)
(0.667889 0.428646 1.58463e-21)
(0.555909 0.467576 0)
(0.435628 0.497228 1.49348e-21)
(0.304559 0.514267 0)
(0.170237 0.515831 1.46727e-21)
(0.0275384 0.51294 6.15937e-22)
(-0.135748 0.515348 0)
(-0.290455 0.500348 0)
(-0.440683 0.479754 0)
(-0.567448 0.452688 0)
(-0.678093 0.429039 0)
(-0.79863 0.428583 0)
(-0.906243 0.424238 2.05108e-21)
(-1.00513 0.411173 -3.07295e-21)
(-1.09886 0.40898 0)
(-1.18816 0.414095 0)
(-1.27895 0.414997 0)
(-1.38018 0.409035 -3.35277e-22)
(-1.48529 0.385159 2.44615e-21)
(-1.61648 0.364839 5.48875e-21)
(-1.77303 0.36848 -5.75195e-21)
(-1.91965 0.36152 -3.18566e-21)
(-2.03161 0.320463 2.93087e-21)
(-2.1408 0.28564 3.99767e-22)
(-2.23953 0.276814 3.52579e-21)
(-2.35464 0.291587 0)
(-2.46233 0.306388 3.67546e-21)
(-2.58678 0.331977 4.30834e-22)
(-2.73065 0.370969 0)
(-2.87338 0.420357 0)
(-3.00706 0.432438 -3.85692e-21)
(-3.11869 0.417858 0)
(-3.22366 0.39402 0)
(-3.30962 0.359303 4.40251e-21)
(-3.37138 0.317321 8.08806e-21)
(-3.41656 0.269666 -3.70612e-21)
(-3.4442 0.219187 0)
(-3.45899 0.174299 3.84341e-21)
(-3.46539 0.136681 0)
(-3.47143 0.109897 4.63155e-21)
(-3.48269 0.0896877 4.00484e-21)
(-3.50233 0.0725741 -8.63419e-21)
(-3.52735 0.062186 -4.57623e-21)
(-3.56955 0.0781888 0)
(-3.62826 0.109389 8.36971e-21)
(-3.69386 0.140362 0)
(-3.77071 0.171392 1.17907e-20)
(-3.86193 0.199849 7.87637e-21)
(-3.94285 0.208935 7.69616e-21)
(-4.02593 0.209826 -7.51776e-21)
(-4.09392 0.202568 1.06908e-20)
(-4.15481 0.191709 0)
(-4.21772 0.184214 0)
(-4.24476 0.1524 -6.90468e-21)
(-4.24812 0.10577 -9.83866e-21)
(-4.25703 0.0803711 0)
(-4.25746 0.0630677 2.94248e-21)
(-4.21717 0.0307807 0)
(-4.16065 -0.0104765 -9.00199e-21)
(-4.09254 -0.0492934 6.06639e-22)
(-4.02637 -0.0789691 -5.82964e-22)
(-3.96493 -0.0986636 5.58347e-21)
(-3.91596 -0.109424 0)
(-3.8731 -0.105777 -5.06566e-21)
(-3.8367 -0.106418 5.06949e-22)
(-3.81898 -0.0886107 0)
(-3.82102 -0.0618133 0)
(-3.81397 -0.0529055 0)
(-3.77603 -0.0713315 3.26306e-21)
(-3.70838 -0.105053 0)
(-3.62353 -0.143016 0)
(-3.52929 -0.176138 0)
(-3.43126 -0.201011 0)
(-3.33263 -0.221146 0)
(-3.23239 -0.233273 2.27876e-21)
(-3.13305 -0.230193 0)
(-3.02887 -0.233686 9.42713e-22)
(-2.9378 -0.238976 4.89871e-22)
(-2.86818 -0.216008 -1.28895e-23)
(-2.82178 -0.181685 0)
(-2.77515 -0.16479 9.48835e-22)
(-2.71369 -0.172993 0)
(-2.62489 -0.187276 1.7581e-21)
(-2.52081 -0.204353 -2.08524e-21)
(-2.39508 -0.228897 -6.19328e-21)
(-2.25457 -0.25594 0)
(-2.09958 -0.280761 -7.62001e-21)
(-1.93863 -0.298669 -2.23384e-21)
(-1.77505 -0.308048 0)
(-1.61307 -0.309044 -5.94776e-21)
(-1.45328 -0.304155 -6.30288e-21)
(-1.2977 -0.29586 1.02977e-20)
(-1.14797 -0.284345 0)
(-1.0042 -0.269806 4.00293e-21)
(-0.870558 -0.252033 4.21284e-21)
(-0.768257 -0.222312 1.27872e-20)
(-0.679489 -0.188602 0)
(-0.564999 -0.17216 0)
(-0.438051 -0.171847 0)
(-0.309243 -0.174518 4.46245e-21)
(-0.184531 -0.176697 0)
(-0.0625943 -0.19382 0)
(0.0488213 -0.207573 -5.07647e-21)
(0.141063 -0.196453 -5.09245e-21)
(0.238221 -0.169033 0)
(0.317676 -0.127803 0)
(0.308889 -0.0562037 -1.06104e-20)
(0.234852 0.021577 0)
(0.182562 0.0561565 1.08918e-20)
(0.184774 0.0594219 1.00945e-20)
(0.172642 0.0652584 0)
(0.175009 0.0543717 0)
(0.21218 0.0193207 -9.35158e-21)
(0.275177 -0.021096 -6.71593e-22)
(0.329917 -0.0512955 -6.03482e-22)
(0.39262 -0.0752825 0)
(0.454369 -0.0931609 -1.8289e-20)
(0.521713 -0.109633 0)
(0.581953 -0.116859 0)
(0.656267 -0.123919 0)
(0.753706 -0.138571 1.02156e-20)
(0.860451 -0.153958 0)
(0.976068 -0.167223 -2.10181e-20)
(1.09823 -0.177894 -1.14948e-20)
(1.23219 -0.187609 0)
(1.37157 -0.19309 -1.26473e-20)
(1.5142 -0.191729 0)
(1.65058 -0.184022 0)
(1.77564 -0.173683 -4.21775e-20)
(1.87451 -0.154342 2.86466e-20)
(1.9734 -0.139196 0)
(2.09241 -0.142892 2.92959e-20)
(2.2297 -0.156368 -1.50598e-20)
(2.36498 -0.165171 0)
(2.48931 -0.164759 0)
(2.60307 -0.158559 0)
(2.70885 -0.150396 -4.311e-20)
(2.81798 -0.142776 0)
(2.93535 -0.138433 -1.43356e-20)
(3.05553 -0.135586 0)
(3.17275 -0.131266 0)
(3.28681 -0.125875 0)
(3.39521 -0.119392 0)
(3.49606 -0.108392 0)
(3.58321 -0.0925748 0)
(3.652 -0.0741458 -2.87902e-20)
(3.7017 -0.058575 0)
(3.7412 -0.0463706 -1.4494e-20)
(3.76512 -0.0358057 4.26101e-20)
(3.78415 -0.0166557 0)
(3.77975 0.0121346 0)
(3.76838 0.0452557 -2.69431e-20)
(3.71627 0.0690222 -2.69898e-20)
(3.70461 0.0885234 2.61299e-20)
(3.63334 0.109719 2.63781e-20)
(0.024499 0.0936757 -4.94129e-22)
(0.121751 -0.143189 -5.35641e-22)
(0.272429 -0.433537 -4.66373e-22)
(0.424574 -0.652869 -3.77606e-22)
(0.553168 -0.78025 0)
(0.655168 -0.831764 9.07121e-22)
(0.73514 -0.830106 -7.01858e-22)
(0.799353 -0.791907 0)
(0.85036 -0.728168 -5.03597e-22)
(0.892319 -0.645648 0)
(0.929893 -0.556186 1.70162e-21)
(0.961914 -0.469109 0)
(0.987571 -0.38302 7.74422e-22)
(1.00337 -0.297677 1.6614e-21)
(1.00671 -0.21409 -1.7574e-21)
(0.999509 -0.134274 0)
(0.984 -0.0583982 -1.88892e-21)
(0.955461 0.0294504 0)
(0.91826 0.122946 0)
(0.874153 0.212197 -1.91624e-21)
(0.82133 0.295862 0)
(0.758303 0.371765 -3.31802e-22)
(0.687197 0.43676 0)
(0.604232 0.501815 0)
(0.508318 0.57049 3.21307e-22)
(0.405961 0.626435 -1.58202e-21)
(0.296503 0.667991 -1.84728e-21)
(0.183655 0.696667 -1.48998e-21)
(0.0671021 0.712006 0)
(-0.0644509 0.728608 -3.24276e-21)
(-0.209882 0.758736 0)
(-0.354307 0.767454 -1.84098e-21)
(-0.494707 0.751005 0)
(-0.636686 0.724889 0)
(-0.767516 0.682073 2.0648e-21)
(-0.902881 0.656314 0)
(-1.02719 0.6288 -2.27007e-21)
(-1.13279 0.592573 3.37724e-22)
(-1.23931 0.579076 4.67391e-21)
(-1.34299 0.580658 -5.27945e-21)
(-1.45042 0.593774 0)
(-1.55374 0.592407 0)
(-1.65938 0.581092 -3.42562e-21)
(-1.77925 0.573771 0)
(-1.92701 0.590814 -2.91094e-21)
(-2.05513 0.570977 3.05013e-21)
(-2.16381 0.522047 3.18581e-21)
(-2.26437 0.472107 0)
(-2.37584 0.460294 -3.42763e-21)
(-2.48479 0.462114 -3.52682e-21)
(-2.63097 0.496292 8.20685e-21)
(-2.78863 0.542256 -3.6754e-21)
(-2.93535 0.554161 -3.72781e-21)
(-3.07519 0.564218 0)
(-3.19419 0.575723 0)
(-3.2894 0.562687 3.856e-21)
(-3.3671 0.533236 0)
(-3.42864 0.484463 0)
(-3.47184 0.423109 -7.987e-21)
(-3.5 0.357653 -8.08941e-21)
(-3.51528 0.292394 0)
(-3.52255 0.231293 0)
(-3.53346 0.183169 0)
(-3.54836 0.152949 0)
(-3.56406 0.132373 -8.60457e-21)
(-3.58823 0.118603 9.36399e-21)
(-3.62141 0.108483 8.64084e-21)
(-3.66405 0.114957 1.78446e-20)
(-3.72085 0.14472 0)
(-3.78878 0.187508 6.55323e-22)
(-3.86155 0.233768 0)
(-3.92994 0.272777 -8.05859e-21)
(-3.98993 0.293729 7.0975e-22)
(-4.03724 0.290785 -7.70132e-21)