/*--------------------------------*- C++ -*----------------------------------*\
  =========                 |
  \\      /  F ield         | OpenFOAM: The Open Source CFD Toolbox
   \\    /   O peration     | Website:  https://openfoam.org
    \\  /    A nd           | Version:  6
     \\/     M anipulation  |
\*---------------------------------------------------------------------------*/
FoamFile
{
    version     2.0;
    format      ascii;
    class       volScalarField;
    location    "0.3";
    object      k_0;
}
// * * * * * * * * * * * * * * * * * * * * * * * * * * * * * * * * * * * * * //

dimensions      [0 2 -2 0 0 0 0];

internalField   nonuniform List<scalar> 
12225
(
0.000177407
0.000152003
0.000454531
0.00127031
0.00153971
0.00151311
0.00116564
0.000622586
0.000317918
0.000183451
0.000147128
0.000149794
0.000197359
0.000284472
0.0003221
0.000328706
0.000295266
0.000515981
2.25535e-05
2.84344e-05
5.81405e-05
0.000180023
0.000306748
0.000344026
0.000335973
0.000281131
0.000180188
0.000114089
8.03691e-05
6.97123e-05
6.97312e-05
7.53143e-05
9.51406e-05
0.00015282
0.000181479
0.000201396
2.00741e-05
1.67191e-05
1.76752e-05
2.12735e-05
3.09013e-05
3.97136e-05
4.24112e-05
4.15568e-05
3.66938e-05
2.92798e-05
2.50113e-05
2.34096e-05
2.3215e-05
2.36507e-05
2.68989e-05
3.36918e-05
4.71231e-05
5.44732e-05
2.00072e-05
2.00055e-05
2.02304e-05
2.04739e-05
2.05537e-05
2.08282e-05
2.09557e-05
2.07822e-05
1.97645e-05
1.80152e-05
1.66631e-05
1.58149e-05
1.55393e-05
1.55372e-05
1.5723e-05
1.64568e-05
1.81727e-05
2.04776e-05
2.0544e-05
2.2988e-05
2.32884e-05
2.2584e-05
2.18263e-05
2.17412e-05
2.18217e-05
2.1903e-05
2.19965e-05
2.23925e-05
2.36515e-05
2.41645e-05
2.40843e-05
2.34503e-05
2.2223e-05
2.1434e-05
2.10355e-05
2.09469e-05
2.33888e-05
2.58983e-05
2.44514e-05
2.21415e-05
2.20277e-05
2.31047e-05
2.41621e-05
2.43455e-05
2.4223e-05
2.40185e-05
2.37636e-05
2.30752e-05
2.22533e-05
2.15912e-05
2.11312e-05
2.08488e-05
2.06875e-05
2.06271e-05
2.144e-05
3.84259e-05
4.32492e-05
3.61164e-05
2.78348e-05
2.61144e-05
2.60788e-05
2.60721e-05
2.5772e-05
2.52687e-05
2.43957e-05
2.35509e-05
2.30946e-05
2.28488e-05
2.24021e-05
2.18675e-05
2.13422e-05
2.09169e-05
2.07048e-05
2.19857e-05
2.7201e-05
2.84138e-05
2.74512e-05
2.46604e-05
2.324e-05
2.25672e-05
2.21485e-05
2.18816e-05
2.17612e-05
2.17558e-05
2.19118e-05
2.28222e-05
2.38931e-05
2.41095e-05
2.3784e-05
2.2386e-05
2.10569e-05
2.39222e-05
2.51919e-05
2.53024e-05
2.44286e-05
2.23885e-05
2.13135e-05
2.08999e-05
2.08114e-05
2.08397e-05
2.10768e-05
2.20438e-05
2.44763e-05
2.6596e-05
2.76722e-05
2.77713e-05
2.72039e-05
2.53771e-05
2.57418e-05
2.21098e-05
2.8002e-05
3.6785e-05
3.56024e-05
2.90393e-05
2.40534e-05
2.19458e-05
2.12373e-05
2.11043e-05
2.11447e-05
2.13946e-05
2.16188e-05
2.17131e-05
2.17775e-05
2.18929e-05
2.21524e-05
2.27467e-05
2.23769e-05
2.11568e-05
2.14709e-05
2.21016e-05
2.20648e-05
2.15622e-05
2.1205e-05
2.11767e-05
2.13768e-05
2.24457e-05
2.37873e-05
2.45059e-05
2.48124e-05
2.49423e-05
2.50812e-05
2.53704e-05
2.61949e-05
2.89362e-05
2.56279e-05
2.40445e-05
2.12174e-05
2.11328e-05
2.14676e-05
2.16323e-05
2.14719e-05
2.14729e-05
2.17742e-05
2.26783e-05
2.32141e-05
2.33739e-05
2.33692e-05
2.31973e-05
2.29677e-05
2.29086e-05
2.29351e-05
2.31808e-05
2.56395e-05
2.34051e-05
2.25814e-05
2.22333e-05
2.12889e-05
2.06893e-05
2.06012e-05
2.07408e-05
2.15125e-05
2.24479e-05
2.30235e-05
2.33982e-05
2.36813e-05
2.38898e-05
2.40844e-05
2.44205e-05
2.5167e-05
2.73447e-05
2.03276e-05
2.434e-05
2.72569e-05
2.71099e-05
2.43987e-05
2.16504e-05
2.06715e-05
2.04523e-05
2.04658e-05
2.06683e-05
2.13884e-05
2.35097e-05
2.95973e-05
3.60019e-05
3.96341e-05
4.05927e-05
4.03508e-05
3.8377e-05
2.01908e-05
2.18187e-05
2.22306e-05
2.19091e-05
2.11465e-05
2.09033e-05
2.08889e-05
2.09624e-05
2.11977e-05
2.17341e-05
2.30715e-05
2.74065e-05
3.3439e-05
3.70759e-05
3.81635e-05
3.81381e-05
3.72476e-05
3.36484e-05
2.21167e-05
2.24649e-05
2.12438e-05
2.06846e-05
2.08242e-05
2.14822e-05
2.1822e-05
2.20129e-05
2.2433e-05
2.28632e-05
2.29272e-05
2.2756e-05
2.26633e-05
2.27109e-05
2.28212e-05
2.27992e-05
2.24341e-05
2.1728e-05
2.33896e-05
2.48371e-05
2.35532e-05
2.17958e-05
2.13443e-05
2.1301e-05
2.14306e-05
2.24314e-05
2.67111e-05
2.91633e-05
2.90257e-05
2.70684e-05
2.44038e-05
2.28964e-05
2.21313e-05
2.17695e-05
2.1655e-05
2.15699e-05
2.13007e-05
2.14511e-05
2.13751e-05
2.18967e-05
2.25453e-05
2.26491e-05
2.25313e-05
2.19688e-05
2.15536e-05
2.13883e-05
2.13415e-05
2.13364e-05
2.1359e-05
2.14968e-05
2.2108e-05
2.32e-05
2.39389e-05
2.43319e-05
2.2663e-05
2.23517e-05
2.13278e-05
2.12554e-05
2.15682e-05
2.18285e-05
2.20218e-05
2.19095e-05
2.14338e-05
2.12917e-05
2.13078e-05
2.15208e-05
2.18547e-05
2.20132e-05
2.20714e-05
2.20731e-05
2.20066e-05
2.1753e-05
2.11639e-05
2.06557e-05
2.0472e-05
2.13881e-05
2.24375e-05
2.25339e-05
2.23018e-05
2.17998e-05
2.15678e-05
2.15671e-05
2.18041e-05
2.31801e-05
2.72948e-05
2.93613e-05
2.94389e-05
2.85202e-05
2.57878e-05
2.39257e-05
2.06698e-05
2.06189e-05
2.07899e-05
2.0908e-05
2.17423e-05
2.24907e-05
2.28095e-05
2.30475e-05
2.30654e-05
2.28665e-05
2.24027e-05
2.21913e-05
2.18592e-05
2.16871e-05
2.1665e-05
2.16983e-05
2.18924e-05
2.2556e-05
2.02441e-05
2.1468e-05
2.23229e-05
2.22318e-05
2.19052e-05
2.1947e-05
2.26844e-05
2.61666e-05
2.88955e-05
2.93971e-05
2.91363e-05
2.75446e-05
2.59272e-05
2.54313e-05
2.54094e-05
2.57196e-05
2.72444e-05
3.38589e-05
2.11629e-05
2.11772e-05
2.10466e-05
2.21722e-05
2.54264e-05
2.69648e-05
2.7449e-05
2.82231e-05
3.03038e-05
3.11333e-05
3.07112e-05
2.80553e-05
2.55643e-05
2.45783e-05
2.42418e-05
2.40658e-05
2.37214e-05
2.32825e-05
2.42096e-05
2.32055e-05
2.26713e-05
2.25295e-05
2.25911e-05
2.48711e-05
2.76524e-05
2.80799e-05
2.77713e-05
2.58925e-05
2.37779e-05
2.26389e-05
2.21627e-05
2.20725e-05
2.21223e-05
2.23224e-05
2.24662e-05
2.26945e-05
2.41623e-05
2.60313e-05
2.48916e-05
2.1662e-05
2.07853e-05
2.10235e-05
2.36382e-05
3.24021e-05
3.63275e-05
3.64806e-05
3.56512e-05
3.21869e-05
2.76535e-05
2.49014e-05
2.35782e-05
2.31877e-05
2.32039e-05
2.36628e-05
2.10296e-05
2.30563e-05
2.35849e-05
2.21085e-05
2.08832e-05
2.09356e-05
2.23949e-05
3.13261e-05
5.54977e-05
6.47728e-05
6.36515e-05
5.35704e-05
3.89732e-05
3.09091e-05
2.75432e-05
2.68674e-05
2.73925e-05
3.19581e-05
2.01121e-05
2.01334e-05
2.00782e-05
1.98676e-05
1.9582e-05
1.94553e-05
1.94884e-05
1.98195e-05
2.07994e-05
2.13103e-05
2.1391e-05
2.13376e-05
2.11438e-05
2.0729e-05
1.9759e-05
1.84863e-05
1.76616e-05
1.75801e-05
2.00255e-05
1.47957e-05
1.45862e-05
1.60501e-05
1.75251e-05
1.76161e-05
1.70574e-05
1.64624e-05
1.63263e-05
1.66095e-05
1.73625e-05
1.79315e-05
1.86849e-05
2.01389e-05
2.43157e-05
3.07863e-05
3.63289e-05
3.90792e-05
2.07005e-05
2.83105e-05
3.52152e-05
4.76782e-05
8.70278e-05
0.000107759
0.000108037
9.75897e-05
7.46284e-05
6.24174e-05
5.86392e-05
5.85435e-05
6.10707e-05
7.21219e-05
0.000109737
0.000172397
0.000223275
0.000254099
8.07065e-05
0.00018512
0.000230785
0.000340451
0.000943475
0.00129597
0.00120596
0.000763535
0.000412503
0.000262908
0.000218958
0.000218278
0.000253442
0.000418205
0.000608878
0.000710408
0.00074845
0.000753855
0.182808
0.221471
0.223441
0.209388
0.182562
0.169785
0.165098
0.164047
0.164426
0.166308
0.170551
0.177585
0.182681
0.184936
0.18569
0.183494
0.174983
0.164493
0.152521
0.141114
0.132624
0.128761
0.126988
0.126074
0.124853
0.124138
0.123667
0.122693
0.122259
0.122121
0.121977
0.121796
0.121803
0.121945
0.122229
0.122644
0.123238
0.124042
0.124625
0.12481
0.124878
0.125302
0.12549
0.12525
0.124648
0.124134
0.123243
0.1217
0.120457
0.12003
0.120204
0.122273
0.135116
0.155142
0.17028
0.181982
0.197352
0.221879
0.23246
0.228084
0.20841
0.193658
0.185408
0.177614
0.17034
0.172248
0.179394
0.180094
0.18749
0.212405
0.275653
0.629814
0.968224
1.02442
1.01043
0.939696
0.397696
0.0700127
0.0403353
0.033738
0.029502
0.0264716
0.0244346
0.0223592
0.0214936
0.0209709
0.0208025
0.0207909
0.0210281
0.0214894
0.0217104
0.0218318
0.0218789
0.0217216
0.0209933
0.0199119
0.0185931
0.0169092
0.0152626
0.0142452
0.0138514
0.0139198
0.0139542
0.0139661
0.013947
0.0138687
0.013767
0.0136724
0.0135961
0.0134918
0.0133449
0.0132166
0.0131374
0.0130676
0.0130071
0.0129871
0.0129671
0.0129926
0.013027
0.0130617
0.01308
0.0131
0.0131456
0.0132605
0.0136352
0.0149997
0.0172827
0.0183595
0.0188798
0.0198452
0.0221072
0.0241605
0.0273776
0.0336712
0.0597471
0.21334
0.41297
0.512138
0.586167
0.678643
0.805562
0.857902
0.763104
0.367133
0.137817
0.0729762
0.054708
0.0480104
0.0453219
0.042817
0.041101
0.0397068
0.0391579
0.0391066
0.039356
0.039466
0.0393685
0.0390788
0.0386191
0.0378425
0.036746
0.0352235
0.0332288
0.0307555
0.0281405
0.0258014
0.0240556
0.022741
0.0217819
0.021133
0.0207103
0.0204962
0.0204812
0.0206035
0.0209774
0.0213947
0.0220694
0.0234699
0.0273213
0.0315332
0.170061
0.183475
0.184069
0.157005
0.150132
0.152613
0.145962
0.12797
0.122253
0.119793
0.117718
0.120973
0.12942
0.133099
0.133939
0.13137
0.128943
0.125931
0.123609
0.12276
0.122438
0.122224
0.12159
0.120418
0.119141
0.118234
0.117509
0.116775
0.116318
0.115959
0.115845
0.116199
0.116886
0.117958
0.119324
0.121113
0.123236
0.125534
0.127828
0.130054
0.132065
0.134513
0.137493
0.140381
0.142969
0.144031
0.142836
0.137792
0.130827
0.12397
0.119286
0.118476
0.120502
0.127162
0.147345
0.165041
0.171819
0.187402
0.206734
0.20496
0.178769
0.158451
0.154812
0.155156
0.157027
0.166435
0.203658
0.214994
0.20558
0.202766
0.222424
0.395932
0.498217
0.779091
0.923109
0.46835
0.125
0.0366467
0.0252625
0.0218907
0.0197508
0.0186378
0.0178998
0.0172846
0.0170012
0.0166654
0.0164644
0.0163786
0.0163551
0.0163594
0.0163775
0.0164116
0.0164666
0.0165429
0.0166467
0.0167232
0.0167201
0.0166462
0.0166122
0.0165482
0.0163896
0.0160789
0.015766
0.0155138
0.015353
0.015225
0.0150627
0.0149973
0.0149748
0.0149111
0.0147882
0.0147016
0.0145722
0.0142712
0.01385
0.0135335
0.0130247
0.012566
0.0120532
0.0115422
0.0110998
0.0107339
0.0104032
0.0100429
0.00973432
0.00958874
0.00953611
0.00945958
0.00918972
0.00900944
0.00897491
0.00881451
0.00885234
0.010626
0.020337
0.0613301
0.205627
0.262537
0.240378
0.238019
0.32448
0.430634
0.430662
0.276666
0.117395
0.0682001
0.05334
0.0486068
0.0472418
0.0468492
0.0467663
0.0467554
0.0466784
0.0464604
0.0462256
0.046193
0.0464152
0.0468035
0.0473975
0.0482173
0.0490806
0.0498108
0.0503656
0.0501595
0.0487794
0.0459813
0.0414859
0.0355035
0.0294667
0.0249624
0.0214727
0.01876
0.0166478
0.0150634
0.0141725
0.0140622
0.0144662
0.016657
0.0215271
0.0262679
0.15454
0.120848
0.122867
0.137824
0.147238
0.144934
0.116882
0.104918
0.104999
0.107167
0.109663
0.113894
0.121685
0.12382
0.124069
0.124068
0.123102
0.12156
0.119743
0.117943
0.115515
0.112182
0.10807
0.103424
0.0983716
0.0931643
0.0880365
0.0834954
0.0794489
0.0763392
0.0743158
0.0733026
0.072942
0.0739522
0.0760045
0.0795275
0.084202
0.0900908
0.0973225
0.105597
0.114656
0.123203
0.131266
0.139148
0.146631
0.153681
0.159264
0.162744
0.163114
0.157092
0.141709
0.129353
0.123764
0.123131
0.124741
0.130149
0.145672
0.16429
0.174524
0.175396
0.170633
0.158977
0.153657
0.152036
0.152314
0.157824
0.200426
0.259759
0.262904
0.234795
0.228115
0.26672
0.455385
0.736728
0.436432
0.124014
0.0400863
0.0253131
0.0233362
0.0226938
0.0224248
0.0224188
0.0222814
0.0216406
0.0211772
0.0206199
0.0199402
0.0191846
0.0186482
0.0183186
0.0177236
0.017346
0.0170981
0.0167094
0.016325
0.0158514
0.0151917
0.0145191
0.0137921
0.012997
0.0125688
0.0124389
0.0124025
0.0121282
0.0120425
0.0119677
0.0118754
0.0118389
0.0121221
0.0124683
0.0130651
0.0139159
0.0146849
0.0151914
0.0154751
0.0156283
0.0156536
0.0155056
0.0152238
0.0148323
0.0142526
0.0134935
0.0126386
0.0117692
0.0109824
0.0103929
0.0100581
0.00972859
0.00895591
0.00760784
0.00706275
0.00701654
0.00686964
0.00687003
0.00791966
0.0140264
0.0476665
0.108773
0.119778
0.142955
0.282202
0.401752
0.380491
0.192379
0.0831356
0.0571581
0.0480647
0.0423822
0.0378547
0.0343026
0.0315047
0.0297479
0.0288807
0.0302054
0.0347894
0.0385611
0.0403462
0.0410716
0.0413323
0.0416013
0.0422977
0.0441562
0.0474096
0.0503903
0.0518145
0.0523904
0.0522224
0.0511768
0.0476715
0.0409068
0.0334023
0.0265798
0.0208362
0.0161273
0.0121175
0.0097206
0.00826272
0.00767137
0.00764996
0.00888037
0.145508
0.0950503
0.0786374
0.121024
0.132828
0.111527
0.105965
0.105641
0.108134
0.112021
0.114301
0.118761
0.121447
0.121965
0.120968
0.118648
0.115158
0.109908
0.10194
0.0900482
0.0739581
0.0603152
0.049225
0.0379242
0.0317435
0.0249798
0.0209475
0.0185674
0.0164024
0.0154042
0.01452
0.0140134
0.0137932
0.0138098
0.0142712
0.0152723
0.0169014
0.0193862
0.023032
0.0283958
0.0362205
0.0476795
0.0625174
0.0807589
0.102244
0.125647
0.14533
0.160778
0.170179
0.173957
0.172842
0.158787
0.138916
0.128562
0.125374
0.125429
0.127429
0.134124
0.152351
0.161703
0.16211
0.159876
0.155345
0.152231
0.151623
0.154806
0.187437
0.273281
0.289681
0.261603
0.233754
0.269562
0.513046
0.458533
0.149948
0.0485345
0.028785
0.0265329
0.028582
0.0299986
0.0305375
0.030218
0.0298614
0.0289496
0.02809
0.0271794
0.0267359
0.0258642
0.024842
0.024167
0.0233026
0.0223227
0.0214976
0.0204641
0.019271
0.0179284
0.016097
0.013826
0.0111784
0.00969386
0.00943857
0.00956597
0.0102444
0.0108906
0.0111307
0.0111515
0.0106149
0.0096315
0.00889388
0.00814292
0.00750702
0.00721167
0.0072205
0.00809135
0.00946815
0.0111115
0.0127329
0.0140249
0.0147048
0.0150317
0.0150498
0.014745
0.0141795
0.0133863
0.0123233
0.0112582
0.010466
0.00999166
0.00969539
0.00943203
0.00933431
0.0093452
0.0094019
0.00961489
0.0105193
0.0134762
0.0246352
0.0477427
0.0607497
0.0972402
0.270323
0.371324
0.306075
0.123469
0.0617148
0.0472383
0.0414632
0.0382208
0.0365355
0.0356611
0.0367273
0.0384012
0.04015
0.0414216
0.0420281
0.0422616
0.0423058
0.0417121
0.0409963
0.0401104
0.0389232
0.0374086
0.0363693
0.0385338
0.0428001
0.0470326
0.0505166
0.052756
0.0539479
0.0543053
0.0541555
0.0532357
0.0513432
0.0475688
0.0409789
0.0320941
0.0237623
0.0170182
0.0124906
0.0110127
0.119009
0.0711193
0.0757389
0.107526
0.104211
0.100704
0.107112
0.113648
0.115984
0.116867
0.117712
0.11875
0.118967
0.115592
0.109437
0.0988775
0.0826843
0.061358
0.045168
0.0300112
0.0228024
0.0157339
0.0118776
0.00928545
0.00751693
0.0066316
0.00613621
0.00589329
0.00578163
0.00565231
0.00555225
0.00527303
0.00482741
0.00454323
0.0041666
0.00375277
0.00357128
0.00349938
0.00360266
0.00409846
0.00502806
0.00662242
0.00932161
0.0138707
0.0217712
0.0360967
0.0627536
0.100055
0.139681
0.166203
0.179148
0.181264
0.173749
0.149498
0.13186
0.125471
0.124555
0.125323
0.128717
0.138972
0.150049
0.153559
0.153458
0.152541
0.151573
0.154222
0.184936
0.28142
0.300894
0.265547
0.242451
0.330668
0.497775
0.204486
0.0650546
0.0338231
0.0298374
0.0319928
0.0331052
0.0322236
0.031621
0.0305453
0.0300576
0.0291776
0.0283988
0.0274576
0.0268209
0.0259351
0.0249613
0.02413
0.0231767
0.0220718
0.0209535
0.0194242
0.017341
0.0144847
0.0104464
0.00863286
0.00811019
0.00829976
0.0101747
0.0141102
0.0185774
0.0212269
0.0224483
0.0224991
0.0210226
0.017978
0.0153777
0.012398
0.00911023
0.00705872
0.00543229
0.0044533
0.00397109
0.0037298
0.00410549
0.00520807
0.00717352
0.00943413
0.0116055
0.0131258
0.0137149
0.0137209
0.0131665
0.0121817
0.0109951
0.00993846
0.00947095
0.00947046
0.00951037
0.00957263
0.00972146
0.0100398
0.0112313
0.0173971
0.0339556
0.0434319
0.0541443
0.0904071
0.255315
0.330936
0.242712
0.0915613
0.0518612
0.0433368
0.0401048
0.0383944
0.0381556
0.0391674
0.0400782
0.0413473
0.0429853
0.0449039
0.0467856
0.0478529
0.0482047
0.0469284
0.0448837
0.0424864
0.0400459
0.0372018
0.034284
0.0324826
0.033136
0.0359691
0.0399658
0.0440606
0.0475926
0.0501321
0.0516137
0.0521991
0.0522084
0.0517809
0.0502319
0.0461157
0.0368581
0.026904
0.0182468
0.0131618
0.111503
0.0612633
0.0695929
0.0803107
0.0962338
0.108151
0.113995
0.116067
0.116399
0.116461
0.115788
0.113452
0.105888
0.0909418
0.0663095
0.0475537
0.0303063
0.0217264
0.0138133
0.0101888
0.00821364
0.00712827
0.00666615
0.00650873
0.00649589
0.00675642
0.00706965
0.00731103
0.00751611
0.00758611
0.00739149
0.00683134
0.00597481
0.00532758
0.00443262
0.00353332
0.00289446
0.00240139
0.00191648
0.0016435
0.00144936
0.00137827
0.00153312
0.00198396
0.00298277
0.00510053
0.0097276
0.0205181
0.0480979
0.102766
0.155063
0.180718
0.185853
0.181839
0.159621
0.134966
0.12507
0.122901
0.123284
0.126384
0.12915
0.133294
0.144843
0.150571
0.150165
0.153755
0.19198
0.295109
0.318452
0.283612
0.285978
0.385163
0.347041
0.0948027
0.0414073
0.0337082
0.0336376
0.0345133
0.0325816
0.0301239
0.0273373
0.0254662
0.0243379
0.0235313
0.0231083
0.0228176
0.0225642
0.0221146
0.0215005
0.0206342
0.0193475
0.0177141
0.0159165
0.0133072
0.0097351
0.00809242
0.00772381
0.00815972
0.0102678
0.0150032
0.0249897
0.0345282
0.0372041
0.0376834
0.0359274
0.0330929
0.0308865
0.0292672
0.02716
0.0248375
0.0221984
0.0175088
0.0123789
0.00769886
0.00494239
0.00330215
0.00244945
0.00205651
0.00190574
0.00216709
0.00303141
0.00481343
0.00732574
0.00976165
0.0113977
0.0118067
0.0114033
0.0102482
0.0092205
0.00880712
0.00879111
0.00888654
0.0092066
0.00979495
0.0111261
0.0168889
0.0400318
0.0514737
0.0599858
0.0940486
0.244754
0.298357
0.202933
0.0770541
0.0481504
0.0424782
0.0402423
0.0396644
0.0398652
0.0406865
0.0421773
0.0447766
0.0487635
0.0530367
0.0561869
0.0577089
0.0580873
0.0556031
0.0514841
0.046513
0.041711
0.0377003
0.034129
0.0302124
0.0286496
0.0295474
0.0330298
0.0377623
0.0423142
0.0458186
0.0481122
0.0493961
0.049974
0.0501358
0.0500866
0.0494816
0.0470251
0.039138
0.028107
0.0189466
0.0955089
0.0570902
0.0701477
0.0893389
0.107532
0.113879
0.115312
0.11564
0.114863
0.112176
0.105661
0.0916811
0.063014
0.041932
0.0281927
0.0185828
0.0128775
0.0101718
0.00882379
0.00833639
0.00819685
0.00819802
0.00921057
0.0104105
0.0120375
0.0136011
0.0149166
0.0157028
0.0160834
0.0161763
0.0154481
0.0142067
0.0126945
0.0109666
0.00870904
0.00666745
0.00488632
0.00341414
0.00232404
0.00170414
0.00126578
0.000989236
0.00079779
0.000700752
0.000697861
0.000854983
0.00136076
0.00285804
0.00739094
0.0220468
0.0716188
0.142989
0.177728
0.184609
0.180416
0.157355
0.131994
0.122297
0.120939
0.122142
0.124546
0.126195
0.135017
0.146467
0.146267
0.153685
0.21855
0.315332
0.338737
0.328648
0.339264
0.366378
0.159885
0.0548125
0.0368805
0.0348419
0.0356986
0.0331087
0.0268476
0.0212501
0.0174209
0.0150222
0.0135424
0.0128914
0.0124317
0.0119239
0.0115331
0.0114443
0.0113969
0.0111856
0.0105952
0.00962691
0.00836629
0.00726769
0.00687625
0.00701085
0.00854418
0.0115126
0.0191744
0.0347358
0.0434658
0.0457223
0.0461061
0.0440721
0.0390139
0.0346284
0.0322256
0.0309855
0.0292888
0.0279334
0.0273232
0.0263879
0.0246913
0.0209563
0.0146039
0.00857972
0.00493394
0.00284091
0.00178835
0.0012939
0.00109837
0.00107841
0.0013673
0.00221581
0.00405427
0.00672971
0.00887549
0.00949798
0.00917459
0.00829597
0.00785175
0.00776437
0.00790243
0.00849389
0.0099724
0.014301
0.0355826
0.0603542
0.0727964
0.108636
0.242595
0.274914
0.17965
0.0706165
0.0470164
0.0423878
0.0408638
0.0404134
0.0408668
0.0425232
0.0458089
0.0516681
0.0573266
0.0626774
0.0656498
0.0668334
0.0669175
0.0635449
0.0573644
0.0491929
0.0424077
0.0371588
0.0335241
0.0292713
0.0250406
0.0229452
0.0230991
0.0258821
0.0327955
0.039664
0.0446679
0.0475872
0.0489456
0.0494194
0.0494948
0.0493642
0.0484579
0.0447885
0.0351691
0.0250893
0.0733068
0.0643492
0.0876977
0.10613
0.112561
0.114198
0.114546
0.113013
0.108215
0.0971172
0.0737263
0.0465709
0.029697
0.0198395
0.014146
0.011407
0.010223
0.00976146
0.00962906
0.0105098
0.0122521
0.0150291
0.0185679
0.0223378
0.0261843
0.0287415
0.0308449
0.0318537
0.0322537
0.0319454
0.030533
0.0283607
0.0251564
0.0213131
0.0178238
0.0140008
0.0101506
0.00689113
0.00446251
0.0027622
0.0016802
0.00108619
0.000772843
0.000590651
0.000474805
0.000417077
0.000413515
0.000536648
0.00113013
0.00358579
0.0138367
0.0606004
0.139336
0.174563
0.180131
0.173595
0.145034
0.123362
0.116551
0.115961
0.116771
0.119489
0.133863
0.141982
0.140683
0.156682
0.25717
0.336827
0.348838
0.340132
0.333266
0.25501
0.0801481
0.0419453
0.0371089
0.037109
0.0345433
0.0265225
0.019824
0.0169053
0.0146372
0.0117636
0.00973443
0.00890467
0.00845952
0.00790554
0.00699728
0.00630595
0.00608082
0.00595154
0.00571794
0.00548012
0.00540043
0.00548333
0.00637823
0.00796759
0.0116099
0.0203639
0.0368046
0.047526
0.0506563
0.0513999
0.0508693
0.0465354
0.0403806
0.0345923
0.0319836
0.0307572
0.0292562
0.0280461
0.0276303
0.0274688
0.0274404
0.0269706
0.0252912
0.0213259
0.0142564
0.00830536
0.00466622
0.00254208
0.00141074
0.000893316
0.000679291
0.00061512
0.000715764
0.00120801
0.00259878
0.00505361
0.00701179
0.00752243
0.00728767
0.00703646
0.00707914
0.00738941
0.00838766
0.0114103
0.0258605
0.0544426
0.07417
0.125728
0.247229
0.260717
0.166359
0.0686585
0.0469378
0.0425418
0.0412131
0.0410993
0.0422723
0.0455967
0.0526148
0.059496
0.0651049
0.0696509
0.072188
0.0732189
0.0731873
0.070689
0.0643104
0.0540182
0.0444727
0.0367218
0.0306324
0.0272317
0.0234093
0.0200259
0.0186413
0.0186362
0.0201827
0.0264892
0.0355003
0.0422514
0.0462152
0.0480591
0.0486663
0.0487141
0.0483256
0.0461773
0.0386343
0.0283256
0.0740122
0.0866938
0.103939
0.110803
0.11279
0.113302
0.111377
0.104879
0.089863
0.0620532
0.0386438
0.0239914
0.0168855
0.0134687
0.0120088
0.0114553
0.0113032
0.012737
0.0159058
0.0214953
0.0289839
0.0350426
0.0405153
0.0440106
0.0462866
0.0478595
0.0485938
0.0488514
0.0487766
0.0481934
0.0474006
0.046133
0.0441066
0.0406033
0.0352563
0.0284037
0.0213863
0.0149133
0.00943631
0.00576645
0.00329994
0.00176618
0.000990322
0.000619135
0.000452029
0.000358455
0.000303428
0.000280752
0.000328326
0.000676254
0.00264081
0.0134238
0.0724818
0.146933
0.173422
0.174371
0.159694
0.129348
0.115724
0.112132
0.11203
0.114703
0.130579
0.132429
0.133167
0.170191
0.298075
0.349581
0.349525
0.331691
0.280286
0.121283
0.0522759
0.0397737
0.0379672
0.0367915
0.0298548
0.0211934
0.0180723
0.0165535
0.0144821
0.0117326
0.00945138
0.00820245
0.00753392
0.00700739
0.00616904
0.0050379
0.00455573
0.00441002
0.004372
0.00439698
0.0046697
0.00543255
0.0069728
0.0104316
0.0182312
0.0339389
0.0481676
0.0529551
0.0544198
0.0546302
0.0531012
0.0480316
0.0404792
0.0321374
0.0291174
0.0281143
0.0276545
0.0266952
0.0265412
0.0269543
0.0276136
0.0278318
0.027683
0.0267803
0.0246489
0.019142
0.0120342
0.00713474
0.00394637
0.0020421
0.00103429
0.000585946
0.00041962
0.000380825
0.000471028
0.000915561
0.00240679
0.00481373
0.00595725
0.00627144
0.0064363
0.00669805
0.0073257
0.00925634
0.0177348
0.04122
0.0683468
0.143792
0.247624
0.252215
0.16069
0.0689694
0.0471356
0.0427108
0.0415728
0.0420304
0.0446983
0.0522074
0.0599516
0.0658341
0.0704183
0.074339
0.0770509
0.0790973
0.0801251
0.0788737
0.0733175
0.0622231
0.0494628
0.038145
0.0298098
0.0234579
0.019984
0.017105
0.0151905
0.0148469
0.014912
0.0159277
0.0209435
0.0310938
0.0389691
0.043672
0.0458939
0.0466141
0.046601
0.0456014
0.0405525
0.0300684
0.0833586
0.100644
0.108467
0.111261
0.112022
0.110365
0.103122
0.0847936
0.0579425
0.0355486
0.0226751
0.0165555
0.0140167
0.0130694
0.0127426
0.013797
0.0172811
0.024854
0.0336518
0.0416867
0.0460567
0.0501837
0.052132
0.0533265
0.053863
0.0540773
0.0541215
0.0537202
0.0532989
0.0526543
0.0518419
0.0510537
0.0504265
0.0495153
0.0478704
0.0447231
0.0396645
0.0316089
0.0203683
0.0120775
0.00704111
0.00366284
0.00181286
0.000906336
0.000517
0.000360142
0.000286138
0.000241072
0.000220597
0.0002566
0.000599777
0.00300304
0.0191205
0.0963975
0.155947
0.169916
0.164243
0.136866
0.117172
0.110625
0.10989
0.112821
0.123261
0.123791
0.128504
0.187278
0.311176
0.347433
0.335679
0.285557
0.150238
0.0684608
0.0435642
0.0398186
0.0390373
0.0344364
0.0241307
0.0198918
0.018234
0.0171179
0.0155576
0.0131569
0.0106452
0.00878227
0.00780191
0.00723929
0.00645797
0.00524224
0.00458926
0.00441448
0.00437976
0.00443167
0.00480216
0.00591878
0.00860234
0.0147693
0.0271837
0.0442125
0.0530004
0.0556548
0.0563269
0.0563569
0.0545241
0.0493871
0.0402358
0.0311661
0.0282203
0.0270331
0.0265217
0.0260222
0.0257929
0.0260398
0.0272017
0.0280137
0.0282588
0.0281861
0.0277783
0.0264737
0.0223587
0.0151253
0.00943883
0.00539549
0.00281463
0.00135047
0.000636538
0.000354608
0.000274693
0.000281998
0.000457355
0.00131506
0.00340304
0.0046719
0.00535071
0.00585364
0.00647057
0.00784938
0.0121848
0.0249564
0.056334
0.154593
0.246939
0.248179
0.161009
0.0704194
0.0476648
0.0429403
0.0421024
0.0433783
0.0502325
0.0599203
0.0666793
0.0712039
0.0746915
0.0792163
0.0835688
0.0883856
0.0909149
0.0898619
0.0827348
0.0710565
0.0570176
0.0427654
0.0310471
0.0228105
0.0168328
0.0130354
0.0109239
0.0106702
0.0108607
0.0112699
0.0123432
0.0166963
0.0267442
0.0346762
0.0395263
0.0419141
0.0426095
0.0423932
0.039924
0.0311096
0.0878859
0.104001
0.109249
0.110729
0.10994
0.103551
0.0852617
0.0593814
0.0368082
0.0234493
0.0173279
0.0149169
0.0141577
0.013984
0.0159427
0.0216848
0.0332166
0.0420714
0.0488211
0.0530599
0.0551549
0.0562392
0.056633
0.0567639
0.056805
0.0569189
0.0569901
0.0567762
0.0559936
0.055066
0.0537417
0.0524019
0.0515046
0.051058
0.0505344
0.0497646
0.0470092
0.0438253
0.0386772
0.0253419
0.0137927
0.00739621
0.00357148
0.00162078
0.000756903
0.000424992
0.000298847
0.000239227
0.000204947
0.000194257
0.000243332
0.000726952
0.0045247
0.0321108
0.118236
0.159635
0.162588
0.145036
0.120103
0.110681
0.109273
0.112301
0.11916
0.117847
0.124045
0.187016
0.291106
0.317858
0.274151
0.172168
0.086519
0.0509975
0.0419507
0.0402415
0.0389985
0.0299583
0.0223619
0.0201042
0.0193114
0.0189869
0.0183019
0.0168722
0.0148425
0.0122706
0.0100027
0.00885838
0.00811196
0.00702874
0.00579907
0.00530446
0.00517185
0.00518349
0.00565624
0.00745062
0.0121112
0.021256
0.0348847
0.0499367
0.0555607
0.0570973
0.0573977
0.0572863
0.0553218
0.0499912
0.0399594
0.0313176
0.0284452
0.027059
0.0264956
0.0260085
0.0256895
0.0257688
0.0270032
0.0282703
0.028839
0.0289325
0.0290405
0.0289367
0.0280316
0.0241053
0.0172279
0.0110673
0.00647177
0.0034128
0.00162604
0.000720642
0.000341514
0.000231954
0.000227664
0.000338888
0.000962108
0.0025317
0.00383703
0.0047477
0.00547149
0.0067127
0.00981154
0.0188735
0.0470884
0.151699
0.24389
0.245782
0.164097
0.0736234
0.0487215
0.0432982
0.0427804
0.0463933
0.0572796
0.066502
0.0719572
0.0756017
0.0800412
0.0870684
0.0947016
0.103828
0.108469
0.107238
0.0968047
0.0837695
0.066498
0.0493738
0.0346637
0.0237433
0.0164506
0.0113714
0.00810115
0.00692529
0.0069958
0.00735914
0.00805019
0.00944414
0.0138469
0.0225234
0.0292513
0.0337164
0.0359289
0.0363772
0.0355398
0.0303712
0.0864941
0.103689
0.108646
0.109316
0.104239
0.0908843
0.0656372
0.0415895
0.0263841
0.0188946
0.0159189
0.0150774
0.014951
0.0169035
0.0245366
0.0371292
0.0464266
0.0530128
0.0566707
0.0584322
0.059234
0.0598418
0.0608439
0.0619496
0.0631711
0.0639949
0.064407
0.0645473
0.06397
0.0626289
0.0602396
0.0565705
0.0524226
0.0505611
0.0499374
0.0507836
0.0496774
0.0471744
0.0452644
0.040492
0.0254298
0.0133285
0.00647416
0.0028819
0.00122367
0.000572395
0.000336804
0.000252567
0.000209245
0.00018738
0.000186395
0.000266244
0.00107086
0.00764722
0.0561014
0.135794
0.157815
0.151595
0.125775
0.11197
0.109364
0.111861
0.116284
0.112181
0.114737
0.165024
0.225131
0.237186
0.182455
0.104452
0.0606717
0.0452769
0.042206
0.0421633
0.0392762
0.0291055
0.0223483
0.0206915
0.0203619
0.0203004
0.0202237
0.0199586
0.0193609
0.0182976
0.0167013
0.0148662
0.013328
0.0119441
0.0101436
0.00862587
0.00817268
0.00807345
0.00841471
0.0108195
0.016166
0.0252117
0.0392063
0.0524285
0.0569367
0.0578664
0.0580025
0.0575545
0.0555305
0.0495518
0.0379462
0.0317216
0.0294588
0.0277193
0.0269767
0.0263853
0.025682
0.0254726
0.0265806
0.0283733
0.029716
0.0305799
0.0307569
0.0306086
0.0303977
0.0296472
0.0252492
0.018218
0.0119078
0.00699557
0.00368021
0.00173605
0.000748847
0.000337149
0.000219593
0.000218845
0.000323215
0.00084746
0.00223946
0.00346023
0.00432743
0.00554552
0.0082732
0.0157761
0.0411437
0.145153
0.239611
0.243698
0.171517
0.0783314
0.0500636
0.0439202
0.0439527
0.0502604
0.0633644
0.0724211
0.0775428
0.0815009
0.0883303
0.0995607
0.110996
0.119707
0.122621
0.122321
0.116661
0.102297
0.0812884
0.0583588
0.0397213
0.0261386
0.0170078
0.0111572
0.00724862
0.00508377
0.00464235
0.00471456
0.00504873
0.0058087
0.00754326
0.0122985
0.0183017
0.0233141
0.0269093
0.0284816
0.0284676
0.0266873
0.0847485
0.102477
0.10706
0.107283
0.0995807
0.0786297
0.0529551
0.0324512
0.0219753
0.0174121
0.0159292
0.015525
0.0166782
0.0232517
0.0356931
0.0477052
0.0541349
0.0582002
0.0600596
0.06095
0.0619029
0.063406
0.0649978
0.0662095
0.0669094
0.0672517
0.0673766
0.0673561
0.0673064
0.0670767
0.0665403
0.0652373
0.0616128
0.0538219
0.049143
0.0483639
0.0500773
0.0486978
0.047326
0.0452591
0.0377559
0.0208933
0.0100002
0.00438352
0.00183602
0.000791119
0.000399637
0.00026573
0.000218301
0.000191908
0.000179025
0.000184748
0.000330255
0.00180667
0.0141458
0.0880692
0.145935
0.151778
0.135754
0.114901
0.109834
0.111516
0.114469
0.10834
0.106884
0.132505
0.169604
0.170089
0.12294
0.0737789
0.0507886
0.0436826
0.0430272
0.0440177
0.0408339
0.0296427
0.0227759
0.0212978
0.0210264
0.0210256
0.0211387
0.0213568
0.021634
0.0218459
0.0219314
0.0218296
0.0213774
0.0203412
0.0185667
0.0161662
0.013955
0.01326
0.013309
0.0152193
0.021454
0.0304544
0.0418417
0.0541654
0.0587898
0.0592215
0.0584441
0.0574235
0.0543001
0.0464565
0.0352563
0.0320605
0.0305434
0.0290555
0.0282891
0.0274397
0.0259801
0.025233
0.0253685
0.0272823
0.0295395
0.0312534
0.03246
0.033119
0.0330599
0.0324907
0.0309076
0.0255845
0.0185768
0.0120677
0.0069779
0.00359667
0.00165317
0.000703255
0.000323571
0.000224244
0.000233807
0.000363996
0.000987122
0.00219706
0.00313283
0.00437205
0.00700249
0.0138661
0.0370119
0.135585
0.234113
0.241778
0.181166
0.0848999
0.0520849
0.0446258
0.0454951
0.0558011
0.070438
0.0788269
0.0834287
0.0888535
0.101357
0.114806
0.121859
0.124471
0.125833
0.126293
0.125595
0.120388
0.102765
0.0734564
0.047336
0.0296194