/*--------------------------------*- C++ -*----------------------------------*\
  =========                 |
  \\      /  F ield         | OpenFOAM: The Open Source CFD Toolbox
   \\    /   O peration     | Website:  https://openfoam.org
    \\  /    A nd           | Version:  6
     \\/     M anipulation  |
\*---------------------------------------------------------------------------*/
FoamFile
{
    version     2.0;
    format      ascii;
    class       volScalarField;
    location    "0.3";
    object      nut;
}
// * * * * * * * * * * * * * * * * * * * * * * * * * * * * * * * * * * * * * //

dimensions      [0 2 -1 0 0 0 0];

internalField   nonuniform List<scalar> 
12225
(
1.43477e-09
0
0
0
0
0
0
0
0
0
0
0
0
0
0
0
0
3.09094e-09
5.92518e-10
0
0
0
0
0
0
0
0
0
0
0
0
0
0
0
0
0
8.53427e-10
0
0
1.62071e-11
2.82322e-11
0
0
0
0
0
0
6.53628e-11
3.05059e-10
1.41368e-10
1.72309e-10
0
0
0
0
0
3.27034e-10
4.24612e-09
2.45044e-09
0
0
0
0
0
0
5.16944e-11
7.82537e-10
0
3.00619e-10
0
5.24963e-10
0
0
0
0
0
0
0
0
0
0
0
1.75567e-08
3.93468e-08
2.5773e-08
1.3594e-10
0
0
0
0
2.68263e-09
0
0
0
0
0
0
0
0
2.763e-09
1.94876e-07
2.58484e-07
2.17322e-07
9.21815e-08
0
0
0
0
5.11364e-07
0
2.47379e-07
0
0
0
0
0
0
6.2417e-08
2.04922e-07
3.02467e-07
3.06473e-07
1.49453e-07
7.57023e-08
8.4432e-09
0
0
8.23682e-07
0
0
0
0
0
0
0
0
0
0
0
0
2.14434e-08
1.2549e-07
1.32145e-07
8.41295e-08
1.81812e-08
1.75337e-06
0
0
0
2.6296e-07
5.04852e-08
0
0
0
0
0
0
0
0
5.29313e-08
9.08009e-08
9.19895e-08
5.20268e-08
1.80275e-06
1.25257e-06
0
6.45888e-07
6.58581e-07
0
0
0
0
0
0
0
0
0
0
0
0
0
1.35916e-06
5.1093e-08
0
4.18839e-07
2.07373e-07
0
0
0
0
0
0
0
0
0
0
0
0
0
9.49222e-07
1.30986e-07
0
0
0
1.19259e-07
5.06293e-08
0
0
0
0
0
0
0
0
0
0
0
8.51639e-07
0
0
0
0
0
5.51248e-08
0
0
0
0
0
0
0
0
5.80781e-08
1.21477e-07
2.37257e-07
0
0
0
0
0
0
0
0
0
0
0
0
0
4.97029e-08
4.63926e-07
5.48921e-07
5.43857e-07
5.47262e-07
0
0
0
0
0
0
0
0
0
0
0
0
1.33989e-08
3.97673e-07
6.87125e-07
7.80238e-07
6.89025e-07
4.82799e-07
0
0
0
0
0
0
0
0
0
1.25441e-07
7.74246e-07
3.07757e-07
0
0
1.88452e-07
3.45514e-07
1.93084e-07
0
0
0
0
0
0
0
0
0
4.94097e-07
1.11984e-06
1.09352e-06
1.84343e-07
0
0
0
0
0
0
4.53359e-07
7.36535e-07
0
0
0
0
3.63424e-08
0
0
0
0
0
0
0
0
0
0
0
1.43268e-06
1.52463e-06
6.457e-07
1.3782e-07
0
0
0
5.16306e-07
0
0
0
0
0
0
5.70714e-08
2.83487e-07
2.34948e-07
1.28444e-07
7.87943e-07
3.17842e-07
0
7.45324e-07
5.83738e-07
4.55037e-07
1.79859e-07
2.00022e-07
0
0
0
0
9.67149e-07
2.12994e-06
1.23814e-06
6.33601e-07
3.28681e-07
2.02577e-07
3.13416e-07
8.1584e-08
0
4.92128e-07
3.03376e-07
2.05118e-07
0
0
0
0
0
2.43219e-08
1.27862e-06
0
0
0
0
0
2.42232e-07
2.28197e-07
1.62602e-07
3.59954e-07
1.25198e-07
0
0
7.0058e-08
7.04548e-07
7.69022e-07
6.60447e-07
8.72747e-07
5.64038e-07
0
0
0
0
0
2.29683e-07
4.84656e-07
7.80857e-07
5.66965e-07
0
3.84828e-08
1.25385e-07
6.58722e-08
4.39224e-07
6.90838e-07
7.96392e-07
8.0692e-07
3.27374e-07
0
0
0
0
0
2.52364e-07
5.24494e-07
9.01453e-07
8.15659e-07
0
0
1.5737e-07
0
0
0
0
9.06927e-08
0
0
0
0
0
0
2.33259e-07
6.04812e-07
1.05567e-06
4.70633e-07
2.7528e-09
0
1.40348e-07
5.31932e-07
9.05621e-07
9.74168e-07
1.42673e-06
1.1981e-06
4.88165e-08
0
0
0
0
0
0
0
1.15861e-07
1.91446e-07
2.91407e-08
1.91866e-07
5.30267e-07
1.54899e-06
2.40981e-06
2.61178e-06
1.9828e-06
9.13031e-07
3.0325e-07
0
0
0
0
5.65079e-08
0
0
0
0
0
0
0
0
0
0
0
0
0
0
0
0
0
0
0
0
0
0
0
0
0
0
0
0
0
0
4.46211e-11
1.91672e-10
2.19721e-11
0
0
0
0
0
0
0
4.16948e-11
4.20606e-10
1.27378e-10
0
0
0
0
0
0
0
0
0
0
0
0
0
0
0
1.07435e-09
2.46086e-09
1.31741e-09
0
0
0
0
0
0
0
0
0
0
0
0
9.71953e-06
2.6545e-05
3.31212e-05
3.00548e-05
1.98003e-05
7.24536e-06
1.39627e-06
9.21668e-06
2.28772e-05
2.81043e-05
2.55553e-05
2.1792e-05
1.98192e-05
1.86832e-05
1.65357e-05
1.28457e-05
8.55293e-06
4.78482e-06
2.22008e-06
8.09523e-07
1.51935e-07
0
0
0
0
0
0
0
0
0
0
0
0
0
0
0
0
9.13608e-07
1.66911e-06
3.14847e-07
0
0
0
0
0
0
0
0
0
0
0
0
0
0
0
1.47382e-06
3.1921e-06
0
0
0
0
1.20253e-05
9.82802e-06
2.80354e-06
0
0
0
1.81875e-06
4.57562e-06
5.31505e-06
0
0
6.40596e-05
0.000122173
0.000126107
5.50617e-05
9.02249e-06
2.02469e-06
1.03716e-06
9.14696e-07
8.0964e-07
6.80253e-07
5.50775e-07
4.54894e-07
3.82927e-07
3.32193e-07
2.9663e-07
2.73265e-07
2.58844e-07
2.49098e-07
2.43988e-07
2.42777e-07
2.43443e-07
2.4182e-07
2.3557e-07
2.20024e-07
1.88595e-07
1.39343e-07
7.33084e-08
0
0
0
0
0
0
0
0
0
0
0
0
0
0
0
0
0
0
0
0
0
0
0
0
0
0
0
0
0
0
1.365e-07
4.81631e-07
6.9189e-07
5.92954e-07
0
0
0
0
2.55331e-06
9.05247e-06
3.20556e-06
3.05845e-07
5.18156e-06
1.32245e-05
1.9008e-05
2.48144e-05
1.55811e-05
3.99369e-06
1.61984e-06
9.76697e-07
6.36818e-07
3.80311e-07
1.66075e-07
0
0
0
0
0
0
0
0
0
0
0
0
0
0
0
0
0
0
0
0
0
0
0
0
0
0
3.19759e-07
0
0
0
1.0825e-05
1.39765e-05
0
0
0
9.75667e-06
2.1663e-05
2.23266e-05
1.68106e-05
1.12778e-05
6.78382e-06
4.24777e-06
3.05629e-06
2.25408e-06
1.29571e-06
2.10294e-07
0
0
0
0
0
0
0
0
0
0
0
0
0
0
0
3.34902e-07
9.27763e-07
1.6946e-06
2.65115e-06
3.60469e-06
4.00933e-06
3.32451e-06
1.29586e-06
0
0
0
0
0
0
0
0
0
0
0
0
0
0
0
0
0
0
0
0
0
7.6244e-06
5.9152e-06
0
0
0
0
3.49319e-06
6.08313e-06
0
5.95512e-06
2.85337e-05
3.21366e-05
2.92589e-05
1.54267e-05
4.8631e-06
1.45043e-06
1.03346e-06
1.09359e-06
1.00137e-06
8.40196e-07
6.84319e-07
5.63989e-07
4.72016e-07
4.07246e-07
3.62404e-07
3.31661e-07
3.10916e-07
2.97742e-07
2.9053e-07
2.88039e-07
2.88725e-07
2.90258e-07
2.88103e-07
2.75804e-07
2.45428e-07
1.90299e-07
1.0578e-07
0
0
0
0
0
0
0
0
0
0
0
0
0
0
0
0
0
0
0
0
0
0
0
0
0
0
0
0
0
0
2.71002e-08
2.28148e-07
3.49614e-07
2.06563e-07
0
0
0
0
0
4.17662e-07
2.82405e-06
3.67356e-06
1.41779e-05
2.90784e-05
3.13695e-05
2.50323e-05
1.51439e-05
7.63088e-06
3.80447e-06
2.17535e-06
1.31994e-06
7.62869e-07
3.51225e-07
2.17876e-08
0
0
0
0
0
0
0
0
0
0
0
0
0
0
0
0
0
0
0
0
0
0
0
0
0
1.42819e-07
0
0
0
0
0
0
0
5.11576e-06
3.59777e-06
9.9052e-07
0
1.20204e-06
1.75962e-06
3.94869e-07
0
0
0
0
0
0
0
0
0
0
0
0
2.64119e-07
5.97185e-07
9.37792e-07
1.29972e-06
1.68054e-06
2.07307e-06
2.48302e-06
2.92872e-06
3.38061e-06
3.81154e-06
4.19702e-06
4.51529e-06
4.71581e-06
4.76248e-06
4.69779e-06
4.52619e-06
4.09167e-06
3.17445e-06
1.75133e-06
4.35157e-08
0
0
0
0
0
0
0
0
0
0
0
0
0
0
0
0
0
0
7.51704e-06
2.91219e-06
0
0
0
0
0
0
0
4.71638e-06
4.42837e-06
3.36409e-06
2.65856e-06
8.77017e-07
2.0622e-09
1.26457e-06
2.8665e-06
3.39931e-06
3.13236e-06
2.60465e-06
2.14805e-06
1.79162e-06
1.52977e-06
1.34051e-06
1.21275e-06
1.12745e-06
1.05977e-06
1.01653e-06
9.87428e-07
9.58426e-07
9.25976e-07
8.76566e-07
7.93752e-07
6.67483e-07
4.88727e-07
2.66043e-07
1.93623e-08
0
0
0
0
0
0
0
0
0
0
0
0
0
0
0
0
0
0
0
0
0
0
0
0
0
0
0
0
0
0
0
2.13302e-08
0
0
0
0
0
0
0
1.39155e-06
1.71649e-05
3.41468e-05
3.13553e-05
1.94997e-05
1.32996e-05
1.03482e-05
9.27199e-06
8.5344e-06
6.73487e-06
4.3224e-06
2.415e-06
1.13778e-06
2.63843e-07
0
0
0
0
0
0
0
0
0
0
0
0
0
0
0
0
0
0
0
0
0
0
0
0
0
0
0
0
0
0
0
0
0
0
0
0
0
0
0
0
0
0
0
0
0
0
0
0
0
0
0
0
0
0
1.25077e-08
4.34894e-07
8.21189e-07
1.15538e-06
1.42987e-06
1.64455e-06
1.82487e-06
1.99239e-06
2.16499e-06
2.35708e-06
2.57458e-06
2.82338e-06
3.11078e-06
3.47232e-06
3.8872e-06
4.29907e-06
4.64495e-06
4.93542e-06
5.16657e-06
5.16278e-06
4.45143e-06
3.30967e-06
2.83523e-06
2.45875e-06
1.0449e-06
0
0
0
0
0
0
0
0
0
0
0
0
0
0
0
0
0
0
0
0
0
0
0
0
0
0
0
1.26658e-06
1.50308e-06
1.15308e-06
8.49026e-07
7.1454e-07
6.69092e-07
6.67354e-07
6.72367e-07
6.83846e-07
7.0858e-07
7.3969e-07
7.83785e-07
8.53128e-07
9.52642e-07
1.10419e-06
1.32388e-06
1.54887e-06
1.59238e-06
1.24086e-06
4.81076e-07
0
0
0
0
0
0
0
0
0
0
0
0
0
0
0
0
0
0
0
0
0
0
0
0
0
0
0
0
0
0
0
0
0
0
0
0
0
0
0
0
1.08162e-05
1.3035e-05
1.19003e-05
1.00773e-05
8.32614e-06
7.7849e-06
7.5761e-06
7.26827e-06
6.71248e-06
5.72994e-06
4.21844e-06
1.64734e-06
0
0
1.12715e-06
0
0
0
0
0
0
0
0
0
0
0
0
0
0
0
0
0
0
0
0
0
0
0
0
0
4.41454e-07
1.06121e-06
0
0
0
0
0
0
4.66099e-07
0
0
0
0
0
0
0
0
0
0
0
0
0
0
0
0
0
0
0
2.19548e-07
5.70629e-07
8.56362e-07
1.05284e-06
1.1598e-06
1.22616e-06
1.23308e-06
1.20108e-06
1.18124e-06
1.16481e-06
1.16557e-06
1.21605e-06
1.30427e-06
1.4324e-06
1.60666e-06
1.83682e-06
2.17372e-06
2.75859e-06
3.72466e-06
4.68112e-06
4.95823e-06
4.33556e-06
3.64715e-06
3.03557e-06
2.12464e-06
1.10468e-06
0
0
0
0
0
0
0
0
2.32941e-07
0
0
0
0
0
0
8.74603e-08
0
0
0
0
0
0
0
0
0
3.75249e-07
7.98634e-07
2.65095e-07
0
0
3.527e-08
1.3711e-07
2.27308e-07
2.91608e-07
3.39265e-07
3.85533e-07
4.34023e-07
4.93395e-07
5.79695e-07
6.99525e-07
8.48848e-07
9.72091e-07
9.45469e-07
8.60305e-07
6.38575e-07
5.90722e-08
0
0
0
0
0
0
0
0
0
0
0
0
0
0
0
0
0
0
0
0
0
0
0
0
0
0
0
0
0
0
0
0
1.04944e-06
0
0
0
0
0
0
7.91205e-06
1.33604e-05
1.34599e-05
1.04063e-05
7.72335e-06
7.43872e-06
7.65671e-06
7.28472e-06
6.33504e-06
4.95326e-06
3.22382e-06
1.09138e-06
0
0
0
0
3.1116e-06
0
0
0
0
0
0
0
0
0
0
0
0
0
0
0
0
0
0
0
0
0
0
0
0
2.08873e-06
4.19155e-06
0
0
0
0
0
0
0
0
0
0
0
0
0
0
0
0
0
0
0
0
0
0
0
0
2.92978e-07
7.27552e-07
1.11127e-06
1.42985e-06
1.66457e-06
1.79025e-06
1.80547e-06
1.78276e-06
1.65706e-06
1.48345e-06
1.32966e-06
1.18738e-06
1.03591e-06
9.34845e-07
8.50623e-07
7.99875e-07
8.03944e-07
8.58005e-07
9.62075e-07
1.12549e-06
1.45735e-06
2.23697e-06
3.49366e-06
4.58433e-06
4.83921e-06
4.48515e-06
3.70747e-06
2.82243e-06
1.9709e-06
1.24099e-06
7.62407e-07
1.33097e-08
0
0
0
2.05128e-05
1.03848e-05
5.02758e-06
0
0
0
0
0
0
0
0
0
0
0
0
0
0
0
1.97947e-06
2.52578e-06
1.24662e-06
6.39258e-07
4.4848e-07
4.16013e-07
4.39635e-07
4.7537e-07
5.00931e-07
5.20305e-07
5.48203e-07
5.82247e-07
6.18573e-07
6.59824e-07
6.79668e-07
6.52671e-07
6.87651e-07
8.01103e-07
9.3459e-07
9.02663e-07
0
0
0
0
0
0
0
0
0
0
0
0
0
0
0
0
0
0
0
0
0
0
0
0
0
0
0
0
0
0
0
0
0
1.29791e-06
2.60408e-07
1.59479e-06
3.28159e-06
4.42597e-06
5.26092e-06
1.17976e-05
1.0597e-05
1.46935e-05
1.47443e-05
1.13129e-05
8.09286e-06
7.87148e-06
7.60704e-06
6.46519e-06
4.83016e-06
3.06128e-06
1.50228e-06
0
0
0
0
0
5.42018e-06
0
0
0
0
0
0
0
0
0
0
0
0
0
0
0
0
0
0
0
0
0
0
0
0
2.13656e-06
2.15059e-06
0
0
0
0
0
0
0
0
0
0
0
0
0
0
0
0
0
0
0
0
0
9.20324e-08
5.51834e-07
8.77386e-07
1.03309e-06
1.06815e-06
1.10419e-06
1.24071e-06
1.47686e-06
1.77436e-06
2.06022e-06
2.25047e-06
2.24616e-06
2.10458e-06
1.85588e-06
1.55375e-06
1.26244e-06
1.05371e-06
8.83085e-07
7.60115e-07
6.62258e-07
5.97269e-07
5.64747e-07
5.81849e-07
6.61774e-07
8.15316e-07
1.2374e-06
2.38177e-06
3.99731e-06
4.66444e-06
3.71368e-06
2.34316e-06
1.50746e-06
1.21239e-06
8.49307e-07
6.25516e-07
1.17396e-06
2.68253e-06
5.40137e-06
1.82562e-05
1.40288e-05
7.87681e-06
0
0
0
0
0
0
0
0
0
0
0
0
0
0
0
1.5104e-06
3.85322e-06
3.52426e-06
2.39758e-06
1.7645e-06
1.39716e-06
1.14273e-06
9.54126e-07
8.13662e-07
7.08555e-07
6.42834e-07
5.99375e-07
5.52551e-07
4.95548e-07
4.57388e-07
4.9897e-07
6.70842e-07
1.03054e-06
1.46928e-06
1.59916e-06
0
0
1.3667e-07
5.67188e-07
6.41907e-07
6.00364e-07
4.23195e-07
1.23117e-07
0
0
0
0
0
0
0
0
0
0
0
0
0
0
0
0
0
0
0
0
0
0
0
0
0
1.38136e-06
7.40728e-07
2.40671e-06
7.23206e-06
4.15429e-06
0
1.82237e-06
1.15621e-05
1.49668e-05
1.44304e-05
1.08802e-05
7.71614e-06
7.45821e-06
6.78389e-06
5.21027e-06
3.36623e-06
2.00815e-06
1.16121e-06
0
0
0
0
0
5.71774e-06
1.02277e-06
0
0
0
0
0
0
0
0
0
0
0
0
0
0
0
0
0
0
0
0
0
0
0
0
0
0
0
0
0
0
0
0
0
0
0
0
0
0
0
0
0
0
0
3.27893e-07
1.21673e-06
1.97915e-06
2.28739e-06
1.8428e-06
5.37429e-07
0
0
0
0
0
0
0
0
1.79308e-07
1.25625e-06
1.8201e-06
1.89277e-06
1.67111e-06
1.33943e-06
1.02161e-06
7.87963e-07
6.37159e-07
5.37385e-07
4.65746e-07
4.20354e-07
3.97385e-07
4.18688e-07
5.18921e-07
8.2716e-07
1.9179e-06
3.04024e-06
2.76498e-06
1.43535e-06
5.8345e-07
2.4238e-08
0
0
0
0
1.02786e-06
1.2726e-05
1.34103e-05
7.7702e-06
0
0
0
0
0
0
1.52553e-07
0
0
0
0
0
0
0
2.49001e-07
7.70318e-07
1.11581e-06
1.66525e-06
2.37027e-06
2.63368e-06
2.40794e-06
2.02208e-06
1.56667e-06
1.11877e-06
7.40539e-07
4.60054e-07
2.81902e-07
1.88501e-07
1.69514e-07
2.28269e-07
4.11881e-07
7.88661e-07
1.46859e-06
2.4122e-06
2.78466e-06
8.32502e-07
7.71528e-07
9.67745e-07
1.14316e-06
1.29364e-06
1.3208e-06
1.14432e-06
8.49819e-07
4.81003e-07
0
0
0
0
0
0
0
0
0
0
0
0
0
0
0
0
0
0
0
0
0
0
0
0
1.08272e-06
3.91353e-07
6.28817e-07
3.07338e-07
0
0
0
1.04408e-05
1.35776e-05
1.24386e-05
9.09333e-06
6.90433e-06
6.86485e-06
5.97396e-06
4.2123e-06
2.64749e-06
2.01091e-06
1.62036e-06
3.51383e-07
0
0
0
0
4.87643e-06
4.13695e-06
0
0
0
0
0
0
0
0
0
0
0
0
0
0
0
0
0
0
0
0
0
0
0
4.66296e-07
6.46437e-07
0
0
0
0
0
0
0
0
0
0
0
0
0
0
0
0
1.3642e-06
3.20264e-06
5.29722e-06
6.84415e-06
7.20166e-06
5.57657e-06
2.1202e-06
0
0
0
0
0
0
0
0
0
0
0
0
1.83086e-07
1.42635e-06
1.62872e-06
1.36179e-06
9.81163e-07
6.88764e-07
5.03964e-07
3.99623e-07
3.31499e-07
2.85333e-07
2.61701e-07
2.70237e-07
3.46347e-07
5.21981e-07
1.06637e-06
1.21781e-06
5.48695e-07
0
0
0
0
0
0
0
9.82329e-06
1.1057e-05
4.84449e-06
0
0
0
0
2.30076e-06
3.63398e-06
2.38706e-06
0
0
0
0
0
0
2.63666e-07
4.75832e-07
2.6581e-07
2.04198e-08
0
3.17784e-08
3.78713e-07
6.91415e-07
8.5255e-07
9.39342e-07
8.06451e-07
3.99388e-07
3.21268e-08
0
0
0
8.14088e-08
3.69052e-07
9.66747e-07
2.07518e-06
3.53524e-06
5.4675e-06
4.1722e-06
7.49546e-07
5.38175e-07
9.59817e-07
1.4047e-06
1.52615e-06
1.27877e-06
8.88321e-07
4.42908e-07
0
0
0
0
0
0
0
0
0
0
0
0
0
0
0
0
0
0
0
0
0
0
0
0
5.54686e-07
0
0
0
0
0
0
8.25432e-06
1.11194e-05
9.87901e-06
7.32612e-06
6.4569e-06
6.49185e-06
5.36053e-06
3.58982e-06
2.5776e-06
2.51953e-06
2.24577e-06
6.85466e-07
0
0
0
0
3.63234e-06
8.04386e-06
7.92739e-07
0
0
0
0
0
0
0
0
0
0
0
0
0
0
0
0
0
0
0
0
0
0
9.68542e-07
1.49415e-06
2.56541e-08
0
0
0
0
0
0
0
0
0
0
0
0
0
8.91883e-07
3.06681e-06
6.06392e-06
9.69287e-06
1.32448e-05
1.59959e-05
1.5675e-05
1.16853e-05
6.12804e-06
1.5101e-06
0
0
0
0
0
0
0
0
0
0
0
0
0
5.41021e-07
1.43324e-06
1.273e-06
8.84121e-07
5.71701e-07
3.87967e-07
2.89114e-07
2.22755e-07
1.69053e-07
1.39127e-07
1.34376e-07
8.39002e-08
0
0
0
0
0
0
0
0
0
0
4.66469e-07
5.79473e-06
0
0
0
1.1169e-06
3.22451e-06
4.94978e-06
5.85148e-06
4.02569e-06
0
0
0
0
0
3.6352e-07
8.05907e-07
5.25472e-07
2.06295e-07
4.29524e-08
0
0
0
1.0984e-07
2.59959e-07
3.24328e-07
3.23452e-07
2.67978e-07
1.04795e-07
0
0
0
8.4467e-08
4.01229e-07
1.16913e-06
2.56642e-06
4.44227e-06
7.42774e-06
2.67706e-06
0
0
0
4.12185e-07
9.60697e-07
8.96258e-07
3.74052e-07
0
0
0
0
0
0
0
0
0
0
0
0
0
0
0
0
0
0
0
0
0
0
0
0
0
2.31768e-07
0
0
0
0
0
0
6.19722e-06
8.72287e-06
7.66663e-06
6.14403e-06
6.26672e-06
6.15222e-06
4.76211e-06
3.181e-06
2.75655e-06
3.03827e-06
2.58501e-06
6.88828e-07
0
0
0
0
2.61728e-06
1.40715e-05
5.93101e-06
0
0
0
0
0
0
0
0
0
0
0
0
0
0
0
0
0
0
0
0
0
0
5.3185e-07
1.06408e-06
2.93558e-07
0
0
0
0
0
0
0
0
0
0
0
0
1.51431e-06
4.35375e-06
8.32933e-06
1.38489e-05
2.11927e-05
2.97246e-05
3.66085e-05
3.67456e-05
2.77513e-05
1.30564e-05
0
0
0
0
0
0
0
0
2.42825e-06
3.44628e-06
2.38879e-06
0
0
0
0
4.14445e-08
1.22781e-06
1.06647e-06
6.81425e-07
4.08415e-07
2.67759e-07
1.96865e-07
1.40858e-07
7.68158e-08
2.98031e-08
0
0
0
0
0
0
0
0
0
0
0
0
0
0
0
0
1.94244e-06
3.42287e-06
4.56165e-06
5.22237e-06
6.42109e-06
8.5743e-06
0
0
0
3.96902e-07
1.47247e-06
1.32068e-06
7.95989e-07
5.53298e-07
5.45397e-07
6.5898e-07
8.14513e-07
9.92333e-07
1.40014e-06
1.91033e-06
1.95152e-06
1.30625e-06
8.67718e-07
6.26221e-07
3.22604e-07
1.39637e-07
6.33632e-08
1.05418e-07
4.09909e-07
1.24538e-06
2.71993e-06
4.801e-06
5.99241e-06
5.32335e-07
0
0
0
0
6.3434e-08
6.82477e-07
3.67305e-07
0
0
0
0
0
0
0
0
0
0
0
0
0
0
0
0
0
0
0
0
0
0
0
0
0
1.32522e-07
0
0
0
0
0
0
4.48173e-06
6.67567e-06
5.84054e-06
5.12723e-06
5.936e-06
5.63265e-06
4.09331e-06
2.86637e-06
2.92087e-06
3.26804e-06
2.46877e-06
2.90681e-07
0
0
0
0
1.19416e-06
2.5867e-05
1.46073e-05
1.9596e-06
0
0
0
0
0
0
0
0
0
0
0
0
0
0
0
0
0
0
0
0
0
0
3.0604e-07
7.26455e-08
0
0
0
0
0
0
0
0
0
0
0
1.53466e-06
4.11825e-06
7.60927e-06
1.23683e-05
1.88728e-05
2.75333e-05
3.8056e-05
4.84673e-05
5.09114e-05
1.2339e-05
0
0
0
0
0
0
0
0
0
0
3.20929e-07
3.53645e-06
3.54084e-06
0
0
0
0
4.33442e-07
1.06521e-06
7.6869e-07
4.38484e-07
2.49011e-07
1.61016e-07
1.17796e-07
7.03421e-08
3.26564e-09
0
0
0
0
0
0
0
0
0
0
0
0
0
0
0
0
1.18228e-06
2.18534e-06
2.94475e-06
3.92838e-06
6.39418e-06
7.44304e-06
0
0
6.62952e-07
2.26722e-06
2.57265e-06
1.78541e-06
1.14232e-06
9.22994e-07
9.22959e-07
1.06962e-06
1.37259e-06
1.81764e-06
2.77102e-06
3.53444e-06
2.20659e-06
4.69031e-07
3.42441e-08
2.82956e-07
2.69061e-07
9.62382e-08
7.51415e-09
4.68244e-08
3.43182e-07
1.17233e-06
2.73359e-06
4.64024e-06
4.8203e-06
0
0
0
0
0
0
7.23314e-07
7.03803e-07
2.4747e-07
0
0
0
0
0
0
0
0
0
0
0
0
0
0
0
0
0
0
0
0
0
0
0
0
8.23308e-08
0
0
0
0
0
0
3.07657e-06
4.88767e-06
4.1386e-06
3.89792e-06
5.24782e-06
4.93006e-06
3.46458e-06
2.6642e-06
2.98829e-06
3.13925e-06
1.91834e-06
0
0
0
0
0
0
5.11696e-05
2.88132e-05
9.36841e-06
0
0
0
0
0
0
0
0
0
0
0
0
0
0
0
0
0
0
0
0
0
0
0
0
0
0
0
0
0
0
0
0
0
0
5.79522e-07
1.93251e-06
3.67905e-06
5.46356e-06
7.25688e-06
8.65167e-06
8.65138e-06
5.38695e-06
0
0
0
0
0
0
0
0
0
0
0
0
0
0
0
2.68098e-06
2.14134e-06
0
0
0
0
7.47502e-07
6.95643e-07
4.11395e-07
2.19023e-07
1.21151e-07
7.66091e-08
4.81448e-08
0
0
0
0
0
0
0
0
0
0
0
0
0
0
0
0
0
6.64883e-07
1.50299e-06
2.08803e-06
2.63882e-06
2.73826e-06
4.14162e-07
0
2.55067e-06
2.88171e-06
3.43359e-06
2.90096e-06
1.94955e-06
1.30618e-06
1.07256e-06
9.59303e-07
9.05884e-07
1.04127e-06
1.17902e-06
1.30239e-06
2.0905e-06
1.99036e-06
6.10581e-07
0
0
1.22899e-07
7.63913e-08
0
3.4111e-08
3.87295e-07
1.28902e-06
2.83743e-06
4.54193e-06
4.5497e-06
0
0
0
0
0
0
1.18231e-06
1.30836e-06
8.82068e-07
5.04219e-07
2.67375e-07
0
0
0
0
0
0
0
0
0
0
0
0
0
0
0
0
0
0
0
0
0
0
4.0925e-08
0
0
0
0
0
0
1.8273e-06
3.28785e-06
2.52065e-06
2.41957e-06
4.27292e-06
4.20957e-06
3.00149e-06
2.58658e-06
2.98743e-06
2.70644e-06
8.23105e-07
0
0
0
0
0
0
9.31366e-05
4.72518e-05
1.91986e-05
2.55604e-06
0
0
0
0
0
0
0
0
0
0
0
0
0
0
0
0
0
0
0
0
0
0
0
0
0
0
0
0
0
0
0
0
0
0
1.25461e-07
2.19705e-07
0
0
0
0
0
0
0
0
0
0
0
0
0
0
0
0
0
0
0
0
1.64235e-06
2.20244e-06
0
0
0
0
4.22711e-07
4.45201e-07
2.50813e-07
1.24976e-07
6.14395e-08
2.94637e-08
1.18217e-08
0
0
0
0
0
0
0
0
0
0
0
0
0
0
0
0
0
6.97336e-07
1.4997e-06
1.84934e-06
1.63614e-06
4.73611e-07
0
0
1.21426e-06
1.88457e-06
2.56653e-06
2.42313e-06
1.76063e-06
1.20146e-06
9.68765e-07
8.0236e-07
5.83418e-07
5.71282e-07
7.10958e-07
5.34515e-07
1.00168e-06
2.19066e-06
1.9667e-06
7.68764e-07
1.55598e-07
2.00781e-07
1.61068e-07
4.89468e-08
2.06064e-07
7.37286e-07
1.76113e-06
3.27006e-06
4.78768e-06
4.97848e-06
1.9144e-06
0
0
0
0
6.38145e-07
2.04166e-06
2.04815e-06
1.32526e-06
7.83195e-07
6.53333e-07
2.80069e-07
0
0
0
0
0
0
0
0
0
0
0
0
0
0
0
0
0
0
0
0
0
2.83179e-08
0
0
0
0
0
0
7.025e-07
1.9166e-06
1.12531e-06
8.96781e-07
3.0944e-06
3.52687e-06
2.71079e-06
2.55743e-06
2.80755e-06
1.8797e-06
0
0
0
0
0
0
0
5.39961e-05
5.43754e-05
2.80928e-05
8.65989e-06
0
0
0
0
0
0
0
0
0
0
0
0
0
0
0
0
0
0
0
0
0
0
0
2.04078e-07
4.22947e-07
6.26503e-07
7.47621e-07
7.47448e-07
6.88402e-07
5.67368e-07
3.60707e-07
0
0
0
0
0
0
0
0
0
0
0
0
0
0
0
0
0
0
0
0
0
0
0
0
0
2.12528e-06
2.339e-06
2.91379e-07
0
0
0
4.14671e-07
1.74878e-07
3.67143e-08
0
0
0
0
0
0
0
0
0
0
0
0
0
0
0
3.24707e-07
0
0
0
0
0
9.27119e-07
1.6921e-06
1.81913e-06
1.14215e-06
0
0
0
9.76479e-08
5.99947e-07
1.5093e-06
1.84511e-06
1.53492e-06
1.0552e-06
7.87313e-07
6.10148e-07
3.00238e-07
4.58071e-08
3.23411e-08
0
0
6.38064e-07
2.68329e-06
2.62496e-06
1.27388e-06
7.22111e-07
9.20552e-07
8.82219e-07
7.75683e-07
1.12265e-06
2.02662e-06
3.33753e-06
4.49181e-06
4.68161e-06
2.95418e-06
0
0
0
0
1.80845e-06
2.85244e-06
2.22322e-06
7.69909e-07
0
3.3685e-07
5.54833e-07
8.00502e-09
0
0
0
0
0
0
0
0
0
0
0
0
0
0
0
0
0
0
0
0
4.91214e-08
0
0
0
0
0
0
0
8.0127e-07
4.43055e-08
0
1.71731e-06
2.81636e-06
2.46974e-06
2.427e-06
2.3448e-06
7.02799e-07
0
0
0
0
0
0
0
0
3.0501e-05
2.89107e-05
1.35699e-05
3.96277e-07
0
0
0
0
0
0
0
0
0
0
0
0
0
0
0
0
0
0
0
0
0
1.74464e-07
1.68151e-06
2.3654e-06
2.44083e-06
2.28739e-06
2.04944e-06
1.80841e-06
1.51132e-06
1.08026e-06
4.05918e-07
0
0
0
0
0
0
0
0
0
0
0
0
0
0
0
0
0
0
0
0
0
1.20029e-06
1.01904e-06
1.69781e-06
2.30462e-06
1.90042e-06
5.27647e-07
0
0
1.21794e-06
6.3121e-07
2.22945e-08
0
0
0
0
0
0
0
0
0
0
0
0
0
0
0
0
4.99211e-07
0
0
0
0
9.71721e-08
1.06579e-06
1.7724e-06
1.80932e-06
9.91842e-07
0
0
0
0
0
3.43428e-07
1.14659e-06
1.22993e-06
8.83176e-07
5.35764e-07
3.13602e-07
0
0
0
0
0
0
0
1.85426e-06
2.6015e-06
1.79794e-06
1.22742e-06
1.18485e-06
1.2609e-06
1.59189e-06
2.43238e-06
3.51242e-06
4.26708e-06
4.34796e-06
3.48255e-06
1.82165e-06
0
0
4.27755e-07
2.53887e-06
2.78987e-06
1.25182e-06
0
0
0
0
0
0
0
0
0
0
0
0
0
0
0
0
0
0
0
0
0
0
0
4.26916e-08
3.10764e-08
1.03807e-07
4.35959e-08
0
0
0
0
0
0
0
0
0
1.0086e-07
1.96979e-06
2.15783e-06
2.12402e-06
1.64083e-06
0
0
0
0
0
0
0
0
0
2.66484e-06
1.80782e-05
1.46967e-05
3.66378e-06
0
0
0
0
0
0
0
0
0
0
0
0
0
0
0
0
0
0
0
2.87667e-06
3.57623e-06
3.18599e-06
2.96471e-06
3.62335e-06
3.7586e-06
3.41671e-06
3.05002e-06
2.69691e-06
2.29779e-06
1.78391e-06
1.07662e-06
1.49671e-07
0
0
0
0
0
0
0
0
0
0
0
0
0
0
0
0
0
3.04601e-06
9.8688e-06
9.99357e-06
7.64032e-06
4.77026e-06
2.74594e-06
1.54772e-06
9.32705e-07
7.93965e-07
1.20481e-06
2.50513e-06
2.43616e-06
6.82001e-07
0
0
0
0
0
0
0
0
0
0
0
0
0
0
0
0
0
2.63975e-07
1.24228e-07
0
0
0
1.97437e-07
1.00295e-06
1.53794e-06
1.5492e-06
8.52787e-07
0
0
0
0
0
0
0
3.64217e-07
3.91188e-07
7.64916e-08
0
0
0
0
0
0
0
0
0
5.48121e-08
1.05822e-06
9.91165e-07
1.0391e-06
1.42198e-06
1.79071e-06
2.36889e-06
3.1953e-06
3.97734e-06
4.43081e-06
4.91282e-06
6.19128e-06
4.43158e-06
0
2.52233e-07
1.59531e-06
1.24995e-06
0
0
0
0
0
0
0
0
0
0
0
0
0
0
2.09228e-07
3.00059e-07
8.08728e-08
0
7.36406e-08
2.42381e-07
1.68034e-07
2.3992e-08
0
7.20813e-08
1.15674e-07
1.01519e-07
1.73759e-07
1.50829e-07
0
0
0
0
0
0
0
0
0
0
8.64054e-07
1.6708e-06
1.66941e-06
9.07712e-07
0
0
0
0
0
0
0
0
0
0
2.80978e-06
1.04821e-05
5.21363e-06
0
0
0
0
0
0
0
0
0
0
0
0
0
0
0
0
0
0
0
2.141e-05
1.15011e-05
5.36385e-06
2.98649e-06
3.20606e-06
4.04924e-06
4.04553e-06
3.67841e-06
3.29233e-06
2.84744e-06
2.33506e-06
1.73268e-06
9.95482e-07
1.76469e-07
0
0
0
0
0
0
0
0
0
0
0
0
0
0
0
1.55171e-05
2.37958e-05
1.74664e-05
1.1267e-05
6.63827e-06
3.7523e-06
1.81335e-06
7.00304e-07
6.71415e-07
2.39595e-06
4.73946e-06
4.89233e-06
2.07695e-06
4.04522e-07
0
0
0
0
0
0
0
0
0
0
0
0
0
0
0
0
0
0
4.66517e-08
0
0
0
2.3174e-07
8.77517e-07
1.22253e-06
1.19331e-06
6.83171e-07
0
0
0
0
0
0
0
0
0
0
0
0
0
0
0
0
0
0
0
0
0
0
1.73053e-07
5.11115e-07
8.67028e-07
1.31671e-06
1.87297e-06
2.44793e-06
2.98045e-06
3.72041e-06
5.17694e-06
3.12257e-06
0
0
0
0
0
0
0
0
0
0
0
0
0
0
0
0
0
0
0
1.9264e-07
3.69854e-07
3.61291e-07
4.96454e-07
8.118e-07
8.90012e-07
6.79353e-07
4.09026e-07
2.84182e-07
2.28732e-07
1.78461e-07
2.37626e-07
2.67172e-07
1.28045e-07
0
0
0
0
0
0
0
0
0
0
1.03011e-06
1.21699e-06
3.85393e-07
0
0
0
0
0
0
0
0
0
0
0
3.06732e-06
4.49262e-06
0
0
0
0
0
0
0
0
0
0
0
0
0
0
0
0
0
0
0
2.83348e-05
1.32639e-05
6.1497e-06
2.72654e-06
1.71189e-06
3.12212e-06
4.07996e-06
3.80805e-06
3.32947e-06
2.89478e-06
2.46413e-06
2.01069e-06
1.48825e-06
8.91813e-07
2.65772e-07
0
0
0
0
0
0
0
0
0
0
0
0
0
1.19869e-05
3.72625e-05
2.23151e-05
1.26501e-05
6.63077e-06
3.75468e-06
2.21292e-06
1.02397e-06
4.89866e-07
1.7242e-06
6.04058e-06
7.58573e-06
4.06401e-06
1.0426e-06
1.55324e-07
0
0
0
0
0
0
0
0
0
0
0
0
0
0
0
0
0
0
0
0
0
0
0
6.4545e-07
8.32797e-07
7.79286e-07
4.10657e-07
0
0
0
0
0
0
0
0
0
0
0
0
0
0
0
0
0
0
0
0
0
0
0
0
1.74081e-07
5.78113e-07
7.68676e-07
8.7442e-07
1.048e-06
1.47024e-06
2.39781e-06
6.52033e-07
0
0
0
0
4.54084e-07
1.32821e-07
0
0
0
0
0
0
0
0
0
0
0
0
0
0
2.79727e-07
6.06998e-07
8.7617e-07
1.24598e-06
1.52787e-06
1.39969e-06
1.01932e-06
6.6272e-07
4.32311e-07
2.91831e-07
3.01206e-07
3.68055e-07
2.72045e-07
4.4279e-08
0
0
0
0
0
0
0
0
0
9.1407e-08
7.41444e-07
1.32652e-07
0
0
0
0
0
0
0
0
0
0
0
0
1.88245e-06
6.75606e-07
0
0
0
0
0
0
0
0
0
0
0
0
0
0
0
0
0
1.12204e-07
3.07754e-05
1.7206e-05
1.02784e-05
4.46181e-06
1.5044e-06
1.38334e-06
3.1557e-06
3.40229e-06
2.94597e-06
2.55017e-06
2.2241e-06
1.88306e-06
1.51306e-06
1.11868e-06
6.81054e-07
2.14828e-07
0
0
0
0
0
0
0
0
0
0
0
0
8.29311e-06
1.20336e-05
8.79643e-06
4.9274e-06
2.75019e-06
1.99341e-06
1.48604e-06
8.86761e-07
1.05958e-06
5.2229e-06
1.13623e-05
6.65273e-06
1.81865e-06
3.70679e-07
5.18755e-08
0
0
0
0
0
0
0
4.21155e-09
7.3445e-09
8.35398e-09
2.21175e-09
0
0
0
0
0
0
0
0
0
0
0
0
2.44349e-07
3.58413e-07
2.81801e-07
2.31517e-08
0
0
0
0
0
0
0
0
0
0
0
0
0
0
0
0
0
0
0
0
0
0
0
0
0
1.00074e-07
6.66572e-07
1.04217e-06
1.44245e-06
2.21218e-06
3.62845e-06
4.45445e-06
1.8744e-06
0
7.30399e-08
1.49209e-06
1.78286e-06
9.35646e-07
0
0
0
0
0
0
0
0
0
0
0
0
1.82648e-10
2.11614e-07
5.1665e-07
9.04439e-07
1.25323e-06
1.61381e-06
1.98176e-06
2.03753e-06
1.67196e-06
1.16579e-06
7.42505e-07
4.62101e-07
3.81177e-07
4.43602e-07
4.04888e-07
1.77914e-07
0
0
0
0
0
0
0
0
0
0
1.082e-07
5.55385e-08
0
0
0
0
0
0
0
0
0
0
0
0
0
1.06981e-06
1.63604e-07
0
0
0
0
0
0
0
0
0
0
0
0
0
0
0
0
3.92514e-07
1.48123e-05
1.40493e-05
7.04057e-06
2.20261e-06
5.43673e-07
7.16412e-07
1.72965e-06
1.99836e-06
1.85294e-06
1.68851e-06
1.5512e-06
1.40534e-06
1.20565e-06
9.59453e-07
6.96939e-07
4.11727e-07
1.01163e-07
0
0
0
0
0
0
0
0
0
0
5.09712e-07
2.07647e-06
2.88684e-06
2.4754e-06
1.49183e-06
1.27921e-06
1.59532e-06
1.51857e-06
1.16119e-06
3.42576e-06
1.50049e-05
1.03092e-05
2.51998e-06
5.76909e-07
1.44387e-07
4.44748e-08
2.37922e-08
2.2786e-08
2.39958e-08
2.50789e-08
2.55217e-08
2.60375e-08
2.66292e-08
2.88006e-08
3.02755e-08
3.03996e-08
3.07168e-08
2.39755e-08
1.89532e-08
1.32645e-08
1.06809e-08
0
0
0
0
0
0
0
0
0
0
0
0
0
0
0
0
0
0
0
0
0
0
0
0
0
0
0
0
0
0
0
0
0
0
0
0
0
0
3.21207e-07
1.02964e-06
1.81407e-06
2.75326e-06
3.65432e-06
3.76687e-06
2.41428e-06
5.63922e-07
2.25528e-07
2.28194e-06
3.31068e-06
2.03717e-06
5.27908e-07
0
0
0
0
0
0
0
0
0
0
0
2.61712e-07
6.93497e-07
1.07307e-06
1.48698e-06
1.7755e-06
2.00525e-06
2.3051e-06
2.48639e-06
2.25037e-06
1.71156e-06
1.1402e-06
6.97798e-07
4.92983e-07
5.04314e-07
5.15171e-07
3.04451e-07
0
0
0
0
0
0
0
0
0
0
0
0
5.78751e-08
0
0
0
0
0
0
0
0
0
0
0
0
1.1565e-06
2.352e-06
1.76362e-06
8.53253e-07
2.67166e-07
7.79425e-08
7.31121e-08
5.97389e-08
0
0
0
0
0
0
0
0
0
0
3.91867e-07
8.58104e-06
8.19496e-06
0
0
0
1.28965e-07
1.34336e-06
6.29295e-07
3.92872e-07
5.7733e-07
7.00067e-07
7.09319e-07
6.37176e-07
5.15447e-07
3.78125e-07
2.44621e-07
1.05819e-07
0
0
0
0
0
0
0
0
0
2.28026e-08
2.41155e-07
4.62381e-07
8.33446e-07
6.87525e-07
5.24e-07
1.18758e-06
1.79912e-06
1.64498e-06
2.85975e-06
1.30041e-05
1.43193e-05
3.19786e-06
7.79999e-07
2.55591e-07
1.13571e-07
7.77536e-08
7.52922e-08
7.47014e-08
6.68229e-08
5.88253e-08
5.49948e-08
5.32263e-08
5.27406e-08
5.26948e-08
5.10215e-08
4.85062e-08
4.92654e-08
4.907e-08
4.4289e-08
3.58312e-08
3.06168e-08
4.79594e-08
0
0
0
0
0
0
0
0
0
0
0
0
0
0
0
0
1.01962e-08
0
0
0
0
0
0
0
0
0
0
0
0
0
0
0
1.78099e-07
4.70105e-07
2.74109e-07
0
0
4.341e-08
5.06893e-07
1.20672e-06
2.13382e-06
2.98626e-06
3.09748e-06
2.16557e-06
5.99219e-07
0
1.21554e-06
4.46893e-06
3.43321e-06
1.31142e-06
0
0
0
0
0
0
0
0
0
0
0
2.97273e-07
1.10996e-06
1.6959e-06
2.15573e-06
2.37957e-06
2.4173e-06
2.56209e-06
2.7705e-06
2.69579e-06
2.22062e-06
1.58092e-06
9.96194e-07
6.49017e-07
5.72678e-07
6.02153e-07
4.33643e-07
3.2751e-08
0
0
0
0
0
0
0
0
0
0
0
1.07933e-06
2.67879e-06
4.65428e-06
5.88601e-06
2.44509e-06
0
0
0
0
0
0
0
0
1.38958e-06
4.68745e-06
4.63142e-06
3.11912e-06
1.61011e-06
7.68305e-07
4.1828e-07
2.55634e-07
1.12779e-07
0
0
0
0
0
0
0
0
0
2.94898e-07
9.47654e-07
0
0
0
0
3.8937e-07
1.27208e-06
0
0
0
0
0
0
0
0
0
0
0
0
0
0
0
0
0
0
0
0
0
2.37186e-07
5.52573e-07
5.30264e-07
9.04972e-07
1.89647e-06
2.57659e-06
4.69172e-06
9.53068e-06
1.13457e-05
4.3664e-06
1.01521e-06
3.72121e-07
1.85302e-07
1.3564e-07
1.3291e-07
1.33885e-07
1.20426e-07
9.94599e-08
8.5535e-08
7.96266e-08
7.66092e-08
7.49381e-08
7.42471e-08
7.08626e-08
6.46826e-08
6.19359e-08
6.36093e-08
6.26305e-08
5.57725e-08
4.14197e-08
4.33768e-08
7.03926e-08
0
0
0
0
0
0
0
0
0
0
0
0
0
0
0
2.49023e-07
3.46129e-07
0
0
0
0
0
0
0
0
0
0
0
0
0
0
0
3.58567e-07
8.75956e-07
1.00492e-06
8.01652e-07
4.73448e-07
2.28252e-07
2.57949e-07
8.1459e-07
1.87405e-06
2.45334e-06
1.84735e-06
4.71066e-07
0
0
2.69471e-06
3.39532e-06
1.3188e-06
0
0
0
0
0
0
0
0
0
0
0
4.04339e-07
1.48792e-06
2.2678e-06
2.75497e-06
2.93498e-06
2.76387e-06
2.72676e-06
2.88975e-06
3.00181e-06
2.6509e-06
2.0138e-06
1.33715e-06
8.48359e-07
6.60496e-07
6.72155e-07
5.63113e-07
1.4409e-07
0
0
0
0
0
0
0
0
0
0
0
1.70139e-06
5.07915e-06
9.31462e-06
1.29497e-05
1.08529e-05
0
0
0
0
0
0
0
0
2.19387e-06
7.27957e-06
7.66345e-06
5.59934e-06
3.09819e-06
1.5217e-06
7.71631e-07
4.43803e-07
2.37849e-07
6.13267e-08
0
0
0
0
0
0
0
0
2.2226e-07
0
0
0
0
0
0
1.96078e-07
0
0
0
0
0
0
0
0
0
0
0
0
0
0
0
0
0
0
0
4.33452e-08
2.7574e-07
7.7764e-07
1.1166e-06
1.41796e-06
2.21217e-06
3.91187e-06
6.53181e-06
7.31437e-06
7.29145e-06
5.38557e-06
1.35722e-06
4.93192e-07
2.51282e-07
1.85337e-07
1.80111e-07
1.81721e-07
1.66085e-07
1.36407e-07
1.10756e-07
9.81759e-08
9.45586e-08
9.29483e-08
9.11328e-08
9.00019e-08
8.69548e-08
7.87844e-08
7.12813e-08
7.10483e-08
7.08753e-08
6.92629e-08
5.37422e-08
3.75456e-08
5.06124e-08
0
0
0
0
0
0
0
0
0
0
0
0
0
0
0
3.67701e-10
7.08826e-07
8.76929e-07
1.27721e-07
0
0
0
0
0
0
0
0
0
0
0
0
0
0
2.94985e-07
1.16361e-06
1.68037e-06
1.41912e-06
6.89781e-07
0
0
8.609e-07
2.0524e-06
1.77103e-06
5.24456e-07
0
0
6.10985e-07
2.88896e-06
1.3132e-06
0
0
0
0
0
0
0
0
0
0
0
7.22588e-07
1.97875e-06
2.79704e-06
3.22415e-06
3.35359e-06
3.05127e-06
2.80744e-06
2.86304e-06
3.07302e-06
3.01267e-06
2.41458e-06
1.69676e-06
1.0875e-06
7.75136e-07
7.34524e-07
6.8094e-07
2.59495e-07
0
0
0
0
0
0
0
0
0
0
0
1.4764e-06
6.41897e-06
1.28915e-05
1.94944e-05
2.05631e-05
5.70533e-06
0
0
0
0
0
0
0
3.88306e-06
1.01988e-05
1.07714e-05
8.1285e-06
4.64242e-06
2.31036e-06
1.12917e-06
6.14233e-07
3.46253e-07
1.31143e-07
0
0
0
0
0
0
0
5.83324e-08
2.03818e-07
1.36816e-05
3.14097e-06
0
0
0
0
0
0
0
0
0
0
0
0
0
0
0
0
0
0
0
0
0
0
1.36626e-07
2.45158e-07
2.93017e-07
6.32974e-07
1.19479e-06
1.79019e-06
2.44789e-06
4.691e-06
5.47338e-06
5.23529e-06
4.8013e-06
4.47243e-06
1.75295e-06
6.07552e-07
3.04885e-07
2.17103e-07
2.05111e-07
2.07617e-07
1.91277e-07
1.5707e-07
1.29485e-07
1.15527e-07
1.11428e-07
1.1084e-07
1.09368e-07