/*--------------------------------*- C++ -*----------------------------------*\
  =========                 |
  \\      /  F ield         | OpenFOAM: The Open Source CFD Toolbox
   \\    /   O peration     | Website:  https://openfoam.org
    \\  /    A nd           | Version:  6
     \\/     M anipulation  |
\*---------------------------------------------------------------------------*/
FoamFile
{
    version     2.0;
    format      ascii;
    class       volScalarField;
    location    "0.3";
    object      p;
}
// * * * * * * * * * * * * * * * * * * * * * * * * * * * * * * * * * * * * * //

dimensions      [0 2 -2 0 0 0 0];

internalField   nonuniform List<scalar> 
12225
(
114.238
111.927
109.135
106.788
104.666
102.705
100.822
99.0271
97.3909
95.942
94.6407
93.445
92.3199
91.2723
90.2451
89.3118
88.3432
87.2545
115.176
111.903
109.138
106.772
104.638
102.674
100.796
99.0112
97.3825
95.9346
94.6321
93.4326
92.3083
91.2511
90.2379
89.2762
88.3139
87.2016
115.222
111.901
109.131
106.76
104.619
102.646
100.774
99.006
97.3884
95.9405
94.6312
93.4236
92.2919
91.2293
90.2179
89.2371
88.2757
87.2028
114.738
111.811
109.118
106.767
104.622
102.625
100.742
98.9792
97.3704
95.9252
94.613
93.4
92.265
91.2005
90.1886
89.2099
88.252
87.2429
114.392
111.799
109.111
106.733
104.587
102.585
100.702
98.9437
97.3368
95.8896
94.5757
93.3632
92.2303
91.1652
90.1535
89.1767
88.2239
87.2853
115.247
111.766
109.077
106.709
104.532
102.506
100.631
98.9008
97.3157
95.874
94.5549
93.335
92.1979
91.1322
90.1245
89.1585
88.2334
87.3636
114.848
111.618
109.006
106.697
104.526
102.475
100.576
98.8323
97.2418
95.8006
94.4871
93.2762
92.148
91.0883
90.0862
89.1338
88.2367
87.4061
112.888
111.347
108.95
106.667
104.463
102.387
100.486
98.7554
97.1787
95.7412
94.4243
93.2099
92.0827
91.0291
90.04
89.1087
88.2372
87.4272
114.009
111.174
108.892
106.636
104.366
102.255
100.361
98.6499
97.0897
95.6615
94.3507
93.1442
92.0269
90.9829
90.0025
89.0813
88.2203
87.4198
112.584
111.087
108.863
106.598
104.319
102.178
100.251
98.5223
96.9599
95.5358
94.2303
93.0319
91.9266
90.8981
89.935
89.032
88.1866
87.3962
109.835
110.928
108.92
106.544
104.185
102.013
100.08
98.3567
96.8071
95.3971
94.1057
92.9228
91.8331
90.8171
89.8644
88.9722
88.138
87.357
110.952
111.399
109.106
106.509
104.034
101.807
99.8673
98.1687
96.647
95.2524
93.9671
92.7909
91.7132
90.7134
89.7774
88.9007
88.0768
87.3012
112.684
112.471
109.342
106.423
103.883
101.639
99.6593
97.9252
96.3971
95.0232
93.7719
92.6297
91.5781
90.5969
89.6763
88.8155
88.0077
87.2453
121.358
114.091
109.654
106.282
103.542
101.249
99.303
97.6268
96.1422
94.792
93.5541
92.4249
91.3914
90.4327
89.5353
88.6947
87.904
87.1571
126.797
115.495
109.673
105.848
103.029
100.736
98.7844
97.1163
95.6672
94.3759
93.2036
92.1303
91.1395
90.2164
89.3532
88.5462
87.7868
87.0676
125.672
114.573
108.644
104.783
102.082
99.9172
98.0878
96.5016
95.0906
93.8313
92.7091
91.6979
90.768
89.9002
89.0858
88.3209
87.5983
86.9128
112.104
108.892
105.862
103.014
100.595
98.5377
96.8416
95.4299
94.1994
93.0927
92.0829
91.1529
90.2912
89.491
88.7465
88.0491
87.3895
86.7599
101.231
103.219
101.747
99.7822
98.0506
96.5519
95.236
94.0558
92.9819
92.0178
91.1552
90.3655
89.6259
88.9281
88.2703
87.6496
87.0625
86.5052
104.161
100.52
98.15
96.4138
94.9579
93.7387
92.7717
91.943
91.1878
90.5039
89.8758
89.2816
88.7157
88.1783
87.6661
87.1752
86.7037
86.2519
106.821
96.8928
93.3029
92.0145
91.3397
90.7599
90.2962
89.8961
89.4913
89.0767
88.6608
88.2467
87.8399
87.4447
87.0604
86.6847
86.3166
85.9587
84.1199
86.599
87.412
87.8566
88.1373
88.2775
88.3188
88.2637
88.128
87.9502
87.7447
87.5045
87.2316
86.9402
86.6407
86.3372
86.0334
85.7325
70.88
78.8599
82.4568
84.4573
85.5486
86.178
86.6368
86.934
87.0386
87.017
86.9359
86.8096
86.6419
86.4482
86.2419
86.0272
85.8059
85.581
70.4139
75.2553
79.2028
81.8553
83.5714
84.6752
85.4204
85.9057
86.1873
86.3438
86.4179
86.4096
86.3259
86.1909
86.0256
85.8399
85.6399
85.4322
62.0792
72.4619
77.2493
80.2396
82.235
83.5683
84.5233
85.1945
85.6134
85.8523
85.9764
86.0124
85.9783
85.8983
85.7907
85.6618
85.5144
85.3544
65.89
71.9687
76.1463
79.1393
81.3155
82.8401
83.915
84.6697
85.1712
85.4906
85.6858
85.7838
85.8037
85.7675
85.6916
85.5832
85.4484
85.2962
69.1064
71.8548
75.562
78.453
80.6697
82.2888
83.4473
84.2823
84.8678
85.2582
85.4995
85.6232
85.658
85.6347
85.5757
85.4907
85.3844
85.2601
66.9117
71.5736
75.2037
78.034
80.2828
81.9834
83.2155
84.0956
84.7027
85.0996
85.346
85.4856
85.5486
85.5576
85.5262
85.4598
85.363
85.2439
67.6965
71.427
74.9634
77.8018
80.0752
81.807
83.0544
83.9462
84.5803
85.014
85.2899
85.444
85.5106
85.5217
85.4963
85.4407
85.3562
85.2476
66.4704
71.3489
74.8615
77.6501
79.9109
81.661
82.9405
83.8643
84.5225
84.971
85.2534
85.4088
85.475
85.4866
85.4642
85.4142
85.3367
85.236
67.418
71.3514
74.8262
77.6101
79.8772
81.6391
82.9236
83.8473
84.5064
84.9581
85.2439
85.4023
85.473
85.4911
85.4753
85.4302
85.3546
85.2523
70.4365
70.3541
70.2176
70.0525
69.8888
69.7719
69.7267
69.7278
69.7362
69.7434
69.7448
69.7325
69.7016
69.6486
69.5739
69.4766
69.3497
69.1882
68.9953
68.7834
68.5721
68.3843
68.2449
68.1805
68.2201
68.3943
68.7314
69.2544
69.9819
70.9284
72.0955
73.4701
75.0351
76.7675
78.6306
80.5796
82.5739
84.5726
86.5235
88.3733
90.0816
91.6122
92.918
93.9538
94.6982
95.1315
95.2209
95.014
94.6595
94.2101
93.7231
93.3886
93.024
92.1939
90.8295
89.6686
88.9929
88.1729
86.9544
85.5061
84.1324
83.1258
82.8801
83.7525
85.4427
86.8313
87.0315
86.469
86.5491
87.7606
88.9901
88.8229
87.464
87.2491
87.0391
86.015
85.1357
82.8901
78.1818
72.114
65.6205
59.2668
53.3079
47.8293
42.821
38.2366
34.0195
30.114
26.471
23.0488
19.8124
16.7342
13.7947
10.9851
8.31236
5.80743
3.53995
1.63694
0.294974
-0.233814
0.31274
2.1368
5.25472
9.4683
14.4526
19.8351
25.2844
30.5625
35.5329
40.142
44.3896
48.3031
51.9184
55.2692
58.3819
61.2745
63.9568
66.4318
68.6983
70.7524
72.5883
74.1995
75.5788
76.7173
77.6063
78.2473
78.6558
78.8462
78.8414
78.6882
78.4264
78.1508
77.9456
77.799
77.4637
76.6419
75.4482
74.3278
73.6955
73.9129
74.2898
73.9412
73.116
71.9499
70.0472
67.1474
63.2574
58.5315
53.234
47.7195
42.3695
37.5571
33.621
30.8319
29.3589
29.245
30.3867
32.5485
35.4164
38.6518
41.9412
45.0304
47.7434
49.9837
51.7224
52.9817
53.8145
54.287
54.4668
54.4181
54.1996
53.8613
53.448
52.9908
52.5204
52.0627
51.6232
51.1882
50.791
50.6569
70.0949
70.0017
69.8471
69.6691
69.5362
69.5085
69.5647
69.643
69.6933
69.7117
69.6983
69.6575
69.596
69.5237
69.4546
69.3964
69.3216
69.1845
68.9593
68.6577
68.3223
68.0043
67.7476
67.5887
67.5586
67.6856
67.994
68.5053
69.2359
70.1901
71.364
72.7491
74.3277
76.0697
77.938
79.8952
81.9002
83.9033
85.8554
87.7177
89.4516
91.0098
92.3454
93.4267
94.2335
94.7354
94.9029
94.793
94.5136
94.0137
93.2941
92.7221
92.1661
91.1024
90.2052
89.8169
89.1321
88.0049
86.5879
84.9694
83.3164
81.8487
81.0208
81.3981
82.9541
84.5926
85.2203
84.9652
84.6522
85.4421
87.2159
87.6529
87.3698
87.6263
87.6654
86.2308
83.9146
80.4498
75.3917
69.5415
63.4618
57.5405
51.9574
46.7765
41.9979
37.5874
33.5019
29.6958
26.1267
22.7561
19.5506
16.4814
13.5267
10.6745
7.92802
5.31556
2.90735
0.84012
-0.662938
-1.30498
-0.789996
1.05824
4.24382
8.5786
13.7066
19.223
24.7782
30.1302
35.1492
39.7908
44.0628
47.9975
51.6335
55.0056
58.1402
61.055
63.7594
66.2553
68.5404
70.6096
72.457
74.0768
75.4633
76.6092
77.5132
78.1859
78.628
78.8282
78.8313
78.7003
78.4405
78.1398
77.9105
77.689
77.2223
76.3289
75.3604
74.3858
73.5595
73.6565
74.1129
73.8473
73.0991
71.9774
69.99
66.9323
62.9089
58.1046
52.7758
47.2547
41.9054
37.0936
33.1569
30.3699
28.9074
28.8117
29.9812
32.1859
35.1083
38.4032
41.7505
44.8911
47.6468
49.9204
51.6833
52.9591
53.8023
54.2803
54.4625
54.4137
54.1939
53.8533
53.4376
52.9771
52.5047
52.0473
51.6014
51.1553
50.749
50.5136
69.7848
69.7146
69.6018
69.4676
69.3702
69.3639
69.4107
69.4506
69.4533
69.453
69.481
69.516
69.4847
69.3494
69.1559
68.9412
68.6952
68.3958
68.0268
67.5939
67.1301
66.6817
66.2971
66.021
65.8926
65.9447
66.2035
66.6894
67.4155
68.386
69.5939
71.0224
72.6474
74.438
76.3574
78.3634
80.4089
82.4465
84.4346
86.3349
88.1082
89.715
91.1202
92.2954
93.2132
93.8486
94.1937
94.272
94.1015
93.6603
93.016
92.3264
91.6207
90.9486
90.3678
89.4935
88.5478
87.6081
86.0671
84.1703
82.3633
80.6744
79.2963
78.9087
80.035
81.8499
82.8711
82.9029
82.6187
82.9586
84.5679
86.5397
88.2028
88.509
87.2235
84.4747
80.5524
75.9204
70.8018
65.4308
60.0267
54.7545
49.7282
44.9911
40.5557
36.4055
32.5159
28.8566
25.3969
22.1056
18.9527
15.9094
12.9503
10.0575
7.2265
4.47671
1.87004
-0.456664
-2.25664
-3.17489
-2.83574
-1.00238
2.32326
6.89384
12.2878
18.0459
23.7898
29.2751
34.3844
39.0901
43.4135
47.3947
51.0759
54.4931
57.6726
60.6314
63.3783
65.9147
68.2366
70.337
72.2086
73.8464
75.249
76.4143
77.3378
78.0279
78.5029
78.763
78.8137
78.6829
78.4181
78.1141
77.8455
77.4998
76.9639
76.2942
75.5453
74.4543
73.5885
73.7791
74.2538
73.9626
73.1098
71.7903
69.5435
66.2706
62.1288
57.2817
51.9473
46.4289
41.0772
36.2537
32.2984
29.4941
28.0259
27.9488
29.1692
31.4562
34.4849
37.8972
41.3598
44.6039
47.4457
49.7863
51.5984
52.9083
53.7733
54.2634
54.4506
54.4016
54.1788
53.8326
53.4107
52.9471
52.4691
51.9985
51.5379
51.0875
50.6749
50.3266
69.7701
69.7196
69.6464
69.5516
69.4614
69.4171
69.3804
69.3095
69.2031
69.08
69.0266
69.0382
68.9584
68.6962
68.2938
67.7955
67.226
66.6063
65.9525
65.2831
64.6259
64.0168
63.4966
63.1083
62.8935
62.8891
63.1244
63.6191
64.3826
65.4142
66.7035
68.2296
69.9615
71.8616
73.8878
75.9949
78.1356
80.2632
82.3334
84.3054
86.143
87.816
89.3
90.5747
91.623
92.4321
92.993
93.2975
93.3333
93.086
92.6201
92.0819
91.5085
90.8308
90.0053
89.0638
88.0888
86.9052
85.4996
83.9504
82.2555
80.4724
78.805
77.9071
78.5122
80.1043
81.1264
81.0768
80.692
80.9671
82.6831
85.7136
87.4273
86.9838
84.4957
80.5097
75.8289
70.9607
66.04
61.1253
56.3001
51.6124
47.112
42.8171
38.7361
34.8632
31.1867
27.69
24.3529
21.1512
18.0581
15.0448
12.0815
9.14209
6.20986
3.28682
0.4149
-2.27942
-4.52283
-5.87301
-5.82711
-4.05828
-0.574792
4.30812
10.0829
16.2044
22.2403
27.9359
33.1911
38.0049
42.4191
46.4846
50.2476
53.7446
57.0012
60.0334
62.849
65.449
67.8283
69.9785
71.8903
73.5566
74.978
76.1629
77.1117
77.8213
78.3153
78.622
78.7319
78.6342
78.3787
78.0592
77.7343
77.3459
76.8412
76.2333
75.4734
74.5625
74.0633
74.2538
74.5641
74.2359
73.1511
71.3947
68.8022
65.3631
61.1527
56.26
50.8834
45.3254
39.9346
35.0679
31.0666
28.2221
26.7338
26.6739
27.9612
30.3641
33.5463
37.1309
40.7641
44.1621
47.1328
49.5747
51.4619
52.8248
53.7249
54.2357
54.4327
54.3852
54.1586
53.8053
53.3743
52.9022
52.4148
51.9358
51.4666
51.0011
50.5496
50.103
69.9867
69.9653
69.927
69.8693
69.787
69.6909
69.5651
69.3847
69.1742
68.8747
68.5423
68.2216
67.8084
67.256
66.5616
65.7397
64.8278
63.8627
62.8812
61.9168
61.0052
60.1843
59.4952
58.9797
58.6784
58.6268
58.8537
59.3774
60.2047
61.333
62.7491
64.4281
66.3339
68.4215
70.6397
72.9345
75.2523
77.5428
79.7597
81.8619
83.8143
85.5891
87.1654
88.531
89.6834
90.6255
91.3612
91.8848
92.1804
92.2312
92.0493
91.6847
91.1479
90.4394
89.6175
88.7063
87.709
86.6667
85.4747
84.0177
82.4973
81.0513
79.7077
78.8684
79.0628
79.9366
80.354
79.9825
79.5539
79.9561
81.6373
83.8152
84.5046
83.1329
79.8259
75.4979
70.8834
66.2157
61.5981
57.0895
52.7227
48.4991
44.4213
40.4892
36.7064
33.0743
29.5894
26.2443
23.0266
19.9171
16.8894
13.9119
10.9473
7.95591
4.89924
1.74682
-1.5012
-4.74907
-7.69675
-9.77551
-10.2839
-8.72892
-5.07224
0.300494
6.718
13.4546
19.9766
26.0141
31.5008
36.4833
41.0389
45.2352
49.1237
52.7412
56.1126
59.2534
62.1711
64.8656
67.3306
69.556
71.5304
73.2448
74.6975
75.9016
76.8692
77.5965
78.0988
78.4293
78.602
78.5696
78.3256
77.9802
77.6319
77.2261
76.6723
76.0399
75.3717
74.7347
74.4007
74.491
74.6747
74.2975
72.9993
70.8724
68.0087
64.4245
60.0942
55.0767
49.5939
43.9595
38.5063
33.5718
29.4939
26.5776
25.0449
24.9924
26.3562
28.9045
32.2859
36.0974
39.9571
43.559
46.6993
49.2746
51.2626
52.6987
53.6486
54.1905
54.404
54.3619
54.132
53.7708
53.3293
52.8484
52.352
51.8578
51.371
50.8846
50.408
49.9306
70.2793
70.2715
70.2607
70.2319
70.1804
70.0435
69.7987
69.4851
69.0985
68.5619
67.8815
67.0921
66.1775
65.1626
64.0477
62.8414
61.5653
60.2458
58.9188
57.623
56.4024
55.3023
54.3691
53.6481
53.1818
53.0083
53.1606
53.6653
54.5377
55.7772
57.3668
59.2728
61.4485
63.837
66.3742
68.9932
71.6283
74.2181
76.7087
79.0549
81.221
83.1795
84.9126
86.4129
87.6827
88.7325
89.5787
90.2389
90.7249
91.0318
91.1266
90.976
90.5715
89.9419
89.1585
88.2955
87.404
86.4663
85.4089
84.3059
83.2816
82.3213
81.5838
81.2656
81.1667
80.8357
80.0376
79.0143
78.3902
78.526
79.5437
80.444
80.1476
77.9881
74.4934
70.4093
66.141
61.8313
57.6029
53.4892
49.4935
45.6069
41.8228
38.1421
34.5705
31.1153
27.7778
24.5543
21.4363
18.4071
15.4389
12.4937
9.52176
6.46064
3.2352
-0.243204
-4.05605
-8.18229
-12.2986
-15.6083
-17.0133
-15.699
-11.5993
-5.32731
2.12933
9.7908
17.0071
23.5176
29.3194
34.5285
39.2728
43.6424
47.6949
51.4678
54.9856
58.2647
61.3134
64.1321
66.7137
69.0454
71.1121
72.9028
74.4131
75.6529
76.6415
77.3852
77.8965
78.2356
78.442
78.4547
78.2273
77.8743
77.5057
77.0686
76.5096
75.9213
75.32
74.7596
74.4196
74.457
74.5827
74.1339
72.6612
70.2861
67.212
63.4416
58.9107
53.7137
48.109
42.3936
36.8568
31.8114
27.6039
24.5676
22.9563
22.8959
24.3429
27.065
30.6929
34.7899
38.9366
42.7968
46.1491
48.8867
50.9952
52.5198
53.5335
54.1181
54.3571
54.3268
54.0973
53.7287
53.275
52.783
52.277
51.769
51.2659
50.7593
50.2613
49.7637
70.5895
70.5838
70.5787
70.5413
70.4443
70.2341
69.8536
69.3191
68.641
67.7783
66.7305
65.5084
64.127
62.6315
61.0375
59.3645
57.6275
55.8476
54.0567
52.2952
50.6129
49.0644
47.7081
46.604
45.812
45.3889
45.3836
45.8335
46.7592
48.154
49.9887
52.2182
54.7829
57.6124
60.6284
63.7478
66.8869
69.9652
72.912
75.6708
78.201
80.4773
82.486
84.2221
85.6887
86.898
87.8705
88.6362
89.2259
89.6678
89.9497
90.0053
89.7764
89.2753
88.5901
87.8235
87.0234
86.1601
85.2839
84.5841
84.0261
83.5363
83.4762
83.6842
83.2045
81.5795
79.3523
77.2926
75.9663
75.612
76.0265
76.1999
75.1703
72.7173
69.4001
65.6931
61.8267
57.9488
54.1242
50.35
46.6217
42.9453
39.3319
35.7947
32.3466
28.9996
25.7586
22.6211
19.5797
16.617
13.699
10.7762
7.77952
4.61282
1.14332
-2.81295
-7.47443
-12.9309
-18.759
-23.6947
-26.0033
-24.5766
-19.5728
-12.0167
-3.2563
5.48807
13.4861
20.5328
26.7094
32.2004
37.181
41.7621
46.0075
49.957
53.6383
57.0702
60.2643
63.2235
65.9416
68.4057
70.5972
72.4982
74.0981
75.4
76.4258
77.1943
77.7197
78.0586
78.2693
78.3016
78.0897
77.7368
77.3667
76.9321
76.3879
75.8088
75.2221
74.6814
74.3316
74.2913
74.3153
73.7674
72.153
69.599
66.3377
62.352
57.5961
52.2271
46.5135
40.7
35.0267
29.8012
25.3988
22.19
20.4631
20.3763
21.9096
24.8334
28.7563
33.2006
37.6994
41.8774
45.4901
48.4233
50.6699
52.2913
53.374
54.0084
54.2815
54.2716
54.0493
53.6768
53.211
52.705
52.1891
51.6721
51.1544
50.6265
50.098
49.5685
70.853
70.8486
70.8155
70.7296
70.5397
70.1816
69.601
68.7927
67.7722
66.5395
65.112
63.4899
61.6807
59.7054
57.5729
55.3058
52.9267
50.4708
47.9839
45.5231
43.1571
40.964
39.0311
37.4485
36.3024
35.6657
35.588
36.0904
37.1686
38.8012
40.9475
43.5527
46.5498
49.863
53.4126
57.1159
60.8841
64.6181
68.2142
71.579
74.6458
77.383
79.7852
81.8605
83.6214
85.0828
86.2634
87.1891
87.893
88.4146
88.7877
88.9879
88.9435
88.6248
88.0944
87.4422
86.7206
85.9585
85.2801
84.8164
84.4248
84.1913
84.6054
85.0923
84.2403
81.7268
78.4747
75.5223
73.5659
72.7872
72.6536
72.1793
70.6079
68.0627
64.9246
61.528
58.0282
54.5189
50.9944
47.4446
43.8794
40.3254
36.8118
33.3619
29.992
26.7152
23.5379
20.4579
17.4684
14.5522
11.6694
8.75454
5.71168
2.39683
-1.40394
-6.005
-11.7931
-18.9341
-26.736
-33.2451
-36.0697
-34.083
-27.9015
-18.9713
-8.91404
0.866649
9.60019
17.171
23.7536
29.5826
34.8564
39.6926
44.1555
48.2906
52.1347
55.7169
59.0562
62.16
65.0234
67.6313
69.9642
71.9983
73.7159
75.1113
76.2002
77.0089
77.5588
77.9003
78.1005
78.1309
77.9264
77.5822
77.2294
76.8083
76.2556
75.6613
75.0989
74.5912
74.2137
74.0558
73.9456
73.2608
71.5011
68.7978
65.3702
61.1769
56.2169
50.7008
44.8728
38.9117
33.0283
27.5496
22.887
19.4484
17.5613
17.4234
19.0442
22.1984
26.4683
31.3266
36.2467
40.8042
44.7275
47.8935
50.3014
52.0283
53.1804
53.863
54.1708
54.1861
53.9793
53.6112
53.1382
52.6177
52.0888
51.5616
51.0316
50.4855
49.9266
49.3664
71.1937
71.1542
71.0635
70.8752
70.5201
69.9534
69.1294
68.0346
66.6803
65.0796
63.2487
61.176
58.8533
56.2785
53.4571
50.4214
47.2177
43.9125
40.5856
37.3306
34.2535
31.4679
29.0876
27.2135
25.923
25.2648
25.2619
25.9141
27.2077
29.1181
31.6001
34.5852
37.9872
41.7129
45.6761
49.8127
54.0778
58.4145
62.7156
66.8301
70.6114
73.9701
76.8866
79.3843
81.4993
83.2653
84.7125
85.8673
86.7559
87.404
87.8598
88.1624
88.2826
88.1669
87.8199
87.3013
86.6769
86.0502
85.5507
85.1671
84.7665
84.6993
85.3854
85.8662
84.7314
81.9536
78.4531
75.2537
73.0307
71.7706
70.8204
69.361
67.0993
64.2564
61.1252
57.8855
54.6108
51.3063
47.9398
44.5111
41.042
37.568
34.1268
30.7478
27.448
24.2389
21.1268
18.1067
15.1681
12.2934
9.43683
6.51624
3.40638
-0.0895708
-4.27802
-9.61393
-16.6312
-25.4738
-35.042
-42.685
-45.5849
-42.8609
-35.5757
-25.4543
-14.2887
-3.63543
5.70365
13.7137
20.6706
26.8467
32.4387
37.5564
42.2531
46.5726
50.5632
54.2722
57.7358
60.9721
63.9805
66.7412
69.2276
71.4103
73.2624
74.7704
75.9432
76.81
77.3968
77.7487
77.9372
77.9584
77.759
77.4265
77.0887
76.6759
76.1124
75.5085
74.9634
74.4697
74.0502
73.7811
73.5248
72.6752
70.7674
67.9365
64.3594
59.9764
54.8401
49.1874
43.2129
37.0383
30.8706
25.0665
20.072
16.3376
14.2402
14.0249
15.7345
19.1486
23.8217
29.1673
34.5843
39.5865
43.8691
47.3032
49.8969
51.7428
52.9667
53.6934
54.0314
54.0696
53.88
53.5224
53.0506
52.5209
51.9787
51.4393
50.8965
50.3347
49.7526
49.1642
71.7447
71.6534
71.4628
71.1068
70.5331
69.7175
68.626
67.242
65.5609
63.5774
61.2816
58.647
55.6644
52.3422
48.7138
44.8438
40.8145
36.7277
32.6951
28.8362
25.27
22.107
19.4398
17.3369
15.8496
15.0271
14.9216
15.582
17.0313
19.251
22.1798
25.7165
29.7254
34.0491
38.5288
43.0442
47.5701
52.1808
56.92
61.6831
66.2381
70.3541
73.9174
76.9325
79.4589
81.5614
83.2938
84.6973
85.8073
86.6489
87.2477
87.6599
87.9195
87.9921
87.8366
87.4775
87.0022
86.5467
86.1937
85.8514
85.5126
85.6369
86.3546
86.6234
85.4713
83.0446
80.0186
77.1266
74.7697
72.7534
70.5297
67.7458
64.5553
61.2144
57.9007
54.6376
51.4072
48.1482
44.8284
41.4529
38.0411
34.6242
31.242
27.9286
24.7007
21.5672
18.5366
15.6028
12.7456
9.94067
7.13648
4.23157
1.06973
-2.59374
-7.14799
-13.1601
-21.2367
-31.4023
-42.1547
-50.3633
-53.0869
-49.7552
-41.6759
-30.6871
-18.7227
-7.47525
2.24284
10.5228
17.7484
24.2156
30.0938
35.4745
40.3966
44.8905
49.0066
52.8097
56.3597
59.6958
62.8285
65.7398
68.3898
70.7372
72.7435
74.3828
75.6559
76.5925
77.2244
77.5942
77.7782
77.7942
77.5981
77.2711
76.9374
76.5291
75.9609
75.3467
74.7994
74.2989
73.839
73.4782
73.0786
72.0642
70.0211
67.0747
63.3516
58.794
53.5025
47.7065
41.5373
35.0807
28.5583
22.3563
16.9557
12.858
10.5003
10.1814
11.9802
15.6829
20.8152
26.7237
32.7202
38.2381
42.9292
46.6613
49.4609
51.4397
52.7417
53.511
53.8733
53.9292
53.7547
53.4094
52.944
52.4115
51.8589
51.3069
50.7515
50.1769
49.5763
48.9613
72.354
72.2241
71.9345
71.4206
70.6452
69.5938
68.2411
66.5654
64.5419
62.1381
59.3191
56.0585
52.3711
48.3046
43.9355
39.3581
34.6702
29.9743
25.3739
20.9732
16.8713
13.1552
9.90111
7.18912
5.12489
3.83226
3.43033
4.01599
5.61888
8.20988
11.7153
16.0137
20.9386
26.2762
31.7606
37.1051
42.1316
46.9193
51.7434
56.7739
61.8828
66.7242
71.0009
74.6141
77.6092
80.0784
82.1056
83.758
85.0863
86.1338
86.9271
87.492
87.8827
88.1195
88.1648
88.0014
87.7106
87.437
87.2274
86.9949
86.8252
87.0808
87.6709
87.7984
86.9387
85.1902
82.8911
80.3659
77.6736
74.5796
70.8892
66.785
62.6639
58.7668
55.1367
51.7033
48.3656
45.0277
41.6639
38.2776
34.8813
31.4979
28.1629
24.9135
21.7646
18.7169
15.7823
12.9642
10.232
7.54483
4.84651
2.02243
-1.11605
-4.85706
-9.64426
-16.0939
-24.7967
-35.6124
-46.7774
-55.0093
-57.4928
-53.8529
-45.406
-34.0031
-21.7198
-10.3242
-0.574764
7.73527
15.0872
21.7757
27.9011
33.5086
38.6267
43.275
47.4978
51.3699
54.9734
58.3733
61.598
64.6393
67.4514
69.9734
72.1515
73.9438
75.3369
76.3583
77.0442
77.4362
77.6199
77.6356
77.4436
77.1152
76.7744
76.364
75.7927
75.1663
74.6042
74.0838
73.5852
73.1468
72.6189
71.4613
69.3004
66.2398
62.3703
57.6529
52.2163
46.2546
39.8383
33.0392
26.1006
19.4334
13.5537
9.02421
6.35459
5.90567
7.795
11.8151
17.4592
24.0036
30.6613
36.7715
41.9251
45.9824
48.9993
51.1196
52.5074
53.322
53.7057
53.7737
53.61
53.2752
52.8183
52.2883
51.7294
51.1655
50.597
50.0105
49.3964
48.7628
72.9039
72.7539
72.4019
71.7858
70.8714
69.6411
68.0686
66.1212
63.7575
60.9301
57.6003
53.7612
49.4619
44.7835
39.8202
34.6603
29.3801
24.057
18.7746
13.6282
8.71998
4.1621
0.0894613
-3.32897
-5.90449
-7.47614
-7.94623
-7.28278
-5.48967
-2.59611
1.33855
6.21328
11.8783
18.1539
24.8139
31.4573
37.5551
42.8869
47.7975
52.8004
58.0977
63.4278
68.3357
72.5457
76.0278
78.8761
81.2024
83.0989
84.637
85.8727
86.8551
87.6059
88.1483
88.5347
88.7782
88.8507
88.7711
88.6663
88.6
88.5381
88.5711
88.8941
89.3582
89.4837
89.0014
87.8828
86.1418
83.7235
80.4667
76.2556
71.3032
66.15
61.257
56.8059
52.7838
49.0784
45.5199
42.0011
38.5056
35.0358
31.5992
28.2117
24.901
21.7068
18.6467
15.7039
12.8798
10.1953
7.62658
5.11127
2.57943
-0.0897363
-3.10275
-6.76473
-11.5443
-18.0547
-26.7877
-37.4506
-48.2296
-56.0095
-58.2552
-54.635
-46.3331
-35.1402
-23.1733
-12.181
-2.80514
5.27487
12.6016
19.4489
25.8192
31.6552
36.9489
41.7221
46.0253
49.9447
53.5812
57.022
60.3161
63.4654
66.4271
69.1238
71.4823
73.4448
74.977
76.0993
76.8532
77.2761
77.4617
77.4791
77.293
76.9565
76.5974
76.1772
75.6034
74.9652
74.3808
73.8311
73.2921
72.786
72.1505
70.8768
68.6142
65.4417
61.4325
56.57
50.9878
44.8311
38.1227
30.9338
23.5262
16.3279
9.89721
4.87311
1.84979
1.25079
3.2304
7.58979
13.7889
21.035
28.4273
35.1991
40.8705
45.2839
48.5255
50.7859
52.2617
53.1263
53.5326
53.6101
53.4536
53.1273
52.6785
52.1523
51.5901
51.0161
50.435
49.8383
49.2162
48.5711
73.5321
73.3729
72.983
72.3049
71.3029
69.9511
68.2152
66.0487
63.3981
60.2129
56.4636
52.1669
47.3965
42.2447
36.7959
31.1131
25.2487
19.2712
13.2786
7.39818
1.77815
-3.41254
-7.97859
-11.7118
-14.4333
-16.0336
-16.472
-15.7463
-13.855
-10.8055
-6.63725
-1.4353
4.63847
11.3731
18.645
26.2771
33.618
39.8936
45.1234
50.0496
55.2852
60.8237
66.1761
70.8862
74.8039
77.9973
80.6015
82.73
84.4687
85.8806
87.0233
87.9473
88.664
89.1986
89.6096
89.9069
90.0709
90.1479
90.2292
90.3435
90.5626
90.934
91.3148
91.4731
91.2623
90.526
89.0336
86.4862
82.6431
77.5566
71.7251
65.8313
60.3091
55.3099
50.8477
46.7936
42.9299
39.1475
35.4404
31.812
28.2695
24.8294
21.507
18.3364
15.3514
12.5297
9.83798
7.29984
4.91752
2.61109
0.292273
-2.13976
-4.90638
-8.34135
-12.8715
-19.0288
-27.1824
-36.9397
-46.6339
-53.5689
-55.5811
-52.2838
-44.6623
-34.3514
-23.3465
-13.2666
-4.60463
3.04262
10.2173
17.1504
23.7585
29.8588
35.3519
40.2418
44.5977
48.5331
52.1782
55.644
58.9972
62.245
65.3441
68.2093
70.7462
72.8842
74.5694
75.8051
76.6404
77.108
77.3002
77.3175
77.1391
76.7916
76.4059
75.9696
75.3934
74.7434
74.1315
73.5458
72.9641
72.3976
71.6743
70.3117
67.9669
64.695
60.5616
55.5683
49.8361
43.459
36.423
28.8032
20.8755
13.0854
6.04812
0.493761
-2.89761
-3.6534
-1.59017
3.10411
9.87465
17.8687
26.0593
33.5488
39.78
44.578
48.0544
50.4496
52.0066
52.9217
53.3544
53.4417
53.2901
52.9707
52.5299
52.0085
51.4444
50.8622
50.2698
49.6638
49.0365
48.385
74.4912
74.3108
73.8805
73.1518
72.0883
70.6556
68.8139
66.5044
63.6616
60.2345
56.2026
51.5973
46.5039
41.0153
35.2041
29.1171
22.8001
16.3347
9.8511
3.51548
-2.49354
-7.99328
-12.7952
-16.7118
-19.5793
-21.292
-21.8056
-21.1042
-19.1743
-16.0157
-11.6713
-6.22115
0.190564
7.23936
14.6765
22.599
30.708
37.9008
43.5745
48.4677
53.5707
59.1457
64.7416
69.7925
74.0412
77.51
80.3315
82.6452
84.5524
86.1265
87.4157
88.4791
89.3614
90.0603
90.6147
91.0781
91.4574
91.7293
91.9688
92.2503
92.6258
93.039
93.3518
93.4939
93.3829
92.774
91.2999
88.5512
84.2777
78.6477
72.2899
65.8965
59.8466
54.3046
49.3594
44.8942
40.6638
36.5508
32.5598
28.6995
24.9793
21.4248
18.0453
14.8582
11.9152
9.21151
6.67027
4.27572
2.07663
0.0298613
-2.02277
-4.21409
-6.68032
-9.72761
-13.7813
-19.254
-26.3609
-34.676
-42.8228
-48.6755
-50.4643
-47.7192
-41.1774
-32.256
-22.7104
-13.8945
-6.1362
0.978315
7.91749
14.8471
21.6399
28.0232
33.7719
38.8226
43.2453
47.1831
50.8087
54.2735
57.6693
61.0091
64.2385
67.2624
69.9679
72.2723
74.1126
75.4682
76.3916
76.9189
77.1263
77.1405
76.9698
76.615
76.1989
75.7413
75.1616
74.4997
73.8575
73.2325
72.6062
71.985
71.1927
69.7692
67.3699
64.0214
59.7857
54.677
48.793
42.1761
34.7835
26.697
18.2068
9.78908
2.12938
-3.947
-7.68521
-8.58502
-6.45621
-1.47041
5.84206
14.5888
23.6165
31.8643
38.6816
43.8784
47.5962
50.1229
51.7505
52.7092
53.1692
53.2694
53.1228
52.8083
52.375
51.8596
51.2955
50.7074
50.1058
49.4911
48.859
48.2041
75.9379
75.7177
75.2304
74.4396
73.3243
71.8469
69.9599
67.5973
64.6834
61.1606
57.0112
52.2674
47.0168
41.3568
35.3594
29.0696
22.5336
15.8419
9.14121
2.61659
-3.54295
-9.1598
-14.0696
-18.1111
-21.1184
-22.9459
-23.5077
-22.797
-20.8417
-17.6414
-13.2484
-7.77876
-1.2925
5.95228
13.4812
21.2682
29.4116
37.0211
43.0563
47.9507
52.922
58.4693
64.1652
69.3802
73.8066
77.4457
80.4116
82.8442
84.8624
86.5512
87.9674
89.149
90.156
91.0143
91.7178
92.3173
92.8456
93.2882
93.663
94.0808
94.5847
95.0377
95.2805
95.3338
95.1718
94.5179
92.9546
90.0502
85.5612
79.6878
73.0704
66.3617
59.8897
53.8336
48.3662
43.4358
38.8004
34.3141
29.9777
25.8163
21.8412
18.0914
14.5926
11.3342
8.36738
5.74696
3.38953
1.1803
-0.873209
-2.72332
-4.4655
-6.32133
-8.46835
-11.1018
-14.5582
-19.1652
-24.9946
-31.6576
-38.1147
-42.7798
-44.2829
-42.1552
-36.892
-29.6437
-21.8015
-14.3433
-7.46886
-0.873599
5.7719
12.5801
19.4371
26.0535
32.1035
37.4039
41.9675
45.9443
49.5467
52.9809
56.3849
59.7945
63.1446
66.3169
69.1779
71.6283
73.6103
75.0852
76.0946
76.6898
76.9255
76.9367
76.7705
76.4154
75.9719
75.4893
74.9046
74.2327
73.5603
72.895
72.2233
71.5523
70.7101
69.2565
66.8371
63.4421
59.1303
53.9242
47.8908
41.0234
33.2601
24.6898
15.6188
6.57343
-1.67442
-8.21186
-12.2362
-13.2505
-11.0819
-5.88077
1.88227
11.3269
21.1852
30.204
37.6137
43.2077
47.1623
49.8146
51.5034
52.495
52.9773
53.0916
52.9514
52.641
52.2136
51.7046
51.1431
50.5523
49.9442
49.3221
48.6852
48.0283
77.8557
77.5627
76.9957
76.1554
75.0181
73.549
71.6965
69.3897
66.5472
63.1002
59.0238
54.3413
49.1316
43.4953
37.5154
31.2479
24.7443
18.0926
11.4364
4.96052
-1.14413
-6.7032
-11.5686
-15.604
-18.6476
-20.5188
-21.099
-20.3942
-18.4845
-15.3755
-11.0892
-5.8106
0.371547
7.37436
14.7846
22.3683
30.1563
37.5077
43.4954
48.354
53.238
58.7439
64.4516
69.6817
74.1221
77.7927
80.8101
83.2954
85.3708
87.1248
88.6217
89.9027
91.001
91.9711
92.8167
93.5443
94.1934
94.7748
95.2582
95.7481
96.3296
96.8241
97.0026
96.9091
96.5881
95.7959
94.117
91.1398
86.6323
80.7614
74.0942
67.2233
60.4499
53.9499
47.9432
42.4836
37.3962
32.5105
27.7918
23.2744
18.9796
14.94
11.2201
7.82465
4.75225
2.08874
-0.162965
-2.14524
-3.9693
-5.63683
-7.14556
-8.65527
-10.4219
-12.622
-15.4423
-19.1095
-23.6409
-28.7041
-33.542
-37.0481
-38.2315
-36.6946
-32.7468
-27.2014
-20.9825
-14.7067
-8.55188
-2.4154
3.87275
10.4248
17.2037
23.9523
30.2831
35.8925
40.6918
44.7883
48.4049
51.7978
55.1701
58.6066
62.0512
65.358
68.3663
70.9502
73.0543
74.6426
75.7352
76.3976
76.6747
76.6877
76.523
76.1744
75.7123
75.2041
74.6131
73.9353
73.236
72.5322
71.8163
71.0993
70.2249
68.773
66.3713
62.9657
58.6088
53.3267
47.1527
40.0395
31.9149
22.8723
13.2366
3.60126
-5.15997
-12.0552
-16.2691
-17.3524
-15.1749
-9.86228
-1.79071
8.23427
18.8637
28.6332
36.618
42.5901
46.7653
49.5316
51.2718
52.2859
52.7826
52.9081
52.7745
52.4676
52.0442
51.5406
50.9832
50.3933
49.7826
49.1554
48.5142
47.8564
79.63
79.3732
78.8152
77.9909
76.9033
75.5265
73.8191
71.7122
69.1184
65.9522
62.1683
57.7737
52.8305
47.4364
41.6881
35.6619
29.4226
23.053
16.6778
10.4627
4.58681
-0.77784
-5.47724
-9.37877
-12.3402
-14.2098
-14.8815
-14.3319
-12.6263
-9.78196
-5.78642
-0.802489
5.00926
11.5364
18.4569
25.5428
32.6869
39.301
44.7874
49.5161
54.4299
59.9243
65.5261
70.5957
74.8861
78.456
81.4223
83.89
85.9663
87.7475
89.2853
90.6252
91.7914
92.8218
93.7547
94.5796
95.3212
95.9981
96.5795
97.0926
97.6728
98.196
98.3441
98.0982
97.5639
96.5925
94.8184
91.8606
87.4917
81.8134
75.2796
68.4091
61.4927
54.6905
48.2206
42.229
36.6565
31.3614
26.2672
21.383
16.7478
12.3857
8.35481
4.72074
1.47515
-1.35324
-3.68747
-5.58176
-7.18877
-8.62206
-9.9263
-11.1678
-12.5437
-14.277
-16.5101
-19.3375
-22.7497
-26.4862
-29.9963
-32.5399
-33.4499
-32.408
-29.5483
-25.3268
-20.2807
-14.8209
-9.18182
-3.4497
2.43159
8.61656
15.1775
21.9226
28.4417
34.3383
39.4154
43.7038
47.3956
50.7656
54.0802
57.4953
60.9897
64.3984
67.5285
70.231
72.4382
74.1272
75.3015
76.0271
76.3557
76.3818
76.2175
75.8792
75.4111
74.8832
74.2861
73.6083
72.8902
72.1541
71.3993
70.6409
69.7507
68.3301
65.9856
62.6119
58.2485
52.9208
46.6323
39.3076
30.8719
21.4208
11.3027
1.18187
-7.96907
-15.0968
-19.4033
-20.5153
-18.37
-13.0731
-4.87638
5.5469
16.8162
27.26
35.7647
42.0666
46.4272
49.2857
51.0637
52.0896
52.5914
52.7225
52.5932
52.2883
51.867
51.3669
50.8133
50.2261
49.6162
48.9873
48.3441
47.6872
80.5933
80.537
80.1818
79.4781
78.5057
77.3009
75.843
74.0612
71.8539
69.1162
65.7781
61.824
57.2959
52.281
46.8838
41.2017
35.3194
29.3238
23.3233
17.4582
11.8876
6.7754
2.28164
-1.45336
-4.29753
-6.13435
-6.87944
-6.48741
-4.98296
-2.38802
1.25812
5.77804
11.0277
16.9279
23.25
29.7189
36.0069
41.6346
46.4859
51.1244
56.1837
61.6738
67.038
71.7883
75.8065
79.1906
82.0461
84.4569
86.5052
88.2807
89.8409
91.2099
92.4207
93.4875
94.4538
95.3371
96.1302
96.8542
97.5012
98.0394
98.5723
99.0911
99.2532
98.915
98.1894
97.039
95.19
92.3025
88.1465
82.7546
76.4657
69.7223
62.8098
55.8745