/*--------------------------------*- C++ -*----------------------------------*\
  =========                 |
  \\      /  F ield         | OpenFOAM: The Open Source CFD Toolbox
   \\    /   O peration     | Website:  https://openfoam.org
    \\  /    A nd           | Version:  6
     \\/     M anipulation  |
\*---------------------------------------------------------------------------*/
FoamFile
{
    version     2.0;
    format      ascii;
    class       surfaceScalarField;
    location    "0.3";
    object      phi;
}
// * * * * * * * * * * * * * * * * * * * * * * * * * * * * * * * * * * * * * //

dimensions      [0 3 -1 0 0 0 0];

internalField   nonuniform List<scalar> 
24170
(
3.17309e-06
1.88695e-07
3.00984e-06
1.63257e-07
2.90616e-06
1.03675e-07
2.81985e-06
8.63143e-08
2.73241e-06
8.74382e-08
2.634e-06
9.8411e-08
2.52902e-06
1.04979e-07
2.43035e-06
9.86744e-08
2.34762e-06
8.27253e-08
2.27966e-06
6.79605e-08
2.22122e-06
5.84439e-08
2.16431e-06
5.69062e-08
2.10793e-06
5.63768e-08
2.04692e-06
6.1016e-08
1.98715e-06
5.9764e-08
1.9276e-06
5.95575e-08
1.85243e-06
7.51629e-08
8.42934e-08
1.76814e-06
3.44156e-06
2.08788e-07
3.45319e-06
1.51626e-07
3.47587e-06
8.09941e-08
3.49158e-06
7.06064e-08
3.49537e-06
8.36492e-08
3.48497e-06
1.08807e-07
3.46328e-06
1.26666e-07
3.4371e-06
1.24859e-07
3.41255e-06
1.07273e-07
3.39291e-06
8.7604e-08
3.37875e-06
7.25992e-08
3.36833e-06
6.73332e-08
3.3587e-06
6.60076e-08
3.34653e-06
7.31862e-08
3.32747e-06
7.88166e-08
3.30345e-06
8.35771e-08
3.27264e-06
1.05982e-07
1.08337e-07
3.24859e-06
3.61448e-06
1.9212e-07
3.64184e-06
1.24272e-07
3.66121e-06
6.16227e-08
3.67377e-06
5.8044e-08
3.6941e-06
6.33156e-08
3.72411e-06
7.88046e-08
3.75083e-06
9.99454e-08
3.76225e-06
1.13437e-07
3.75728e-06
1.12239e-07
3.74483e-06
1.00055e-07
3.73416e-06
8.32669e-08
3.7307e-06
7.07972e-08
3.73225e-06
6.44574e-08
3.7366e-06
6.88336e-08
3.73822e-06
7.71978e-08
3.73465e-06
8.71508e-08
3.73645e-06
1.04181e-07
1.01984e-07
3.7428e-06
3.91558e-06
5.90969e-08
3.96061e-06
7.92395e-08
3.96016e-06
6.20701e-08
3.95688e-06
6.13318e-08
3.96658e-06
5.36166e-08
3.98708e-06
5.83015e-08
4.00874e-06
7.82807e-08
4.02308e-06
9.90997e-08
4.02718e-06
1.08138e-07
4.02374e-06
1.03498e-07
4.01647e-06
9.05353e-08
4.00891e-06
7.83582e-08
4.00206e-06
7.1311e-08
3.99796e-06
7.29305e-08
3.99549e-06
7.96633e-08
3.99553e-06
8.71107e-08
4.00524e-06
9.44784e-08
8.98789e-08
4.01734e-06
4.21792e-06
-1.69663e-08
4.27285e-06
2.43069e-08
4.28491e-06
5.00149e-08
4.26776e-06
7.84826e-08
4.23933e-06
8.20477e-08
4.22176e-06
7.58676e-08
4.22573e-06
7.43114e-08
4.24549e-06
7.93445e-08
4.26706e-06
8.65602e-08
4.27887e-06
9.1694e-08
4.2774e-06
9.20021e-08
4.26778e-06
8.7974e-08
4.2581e-06
8.09992e-08
4.25585e-06
7.51807e-08
4.26343e-06
7.20779e-08
4.28054e-06
7.00054e-08
4.30523e-06
6.97875e-08
6.83764e-08
4.32673e-06
4.53822e-06
-8.02369e-09
4.4949e-06
6.76227e-08
4.46351e-06
8.14102e-08
4.48702e-06
5.49653e-08
4.53865e-06
3.04218e-08
4.58648e-06
2.80379e-08
4.61165e-06
4.91443e-08
4.61114e-06
7.98519e-08
4.59271e-06
1.04992e-07
4.5669e-06
1.17498e-07
4.54191e-06
1.16991e-07
4.52271e-06
1.07178e-07
4.51134e-06
9.23747e-08
4.50847e-06
7.8047e-08
4.51365e-06
6.6892e-08
4.5245e-06
5.91614e-08
4.53881e-06
5.54734e-08
5.62675e-08
4.55092e-06
4.86863e-06
6.70261e-08
4.85523e-06
8.10179e-08
4.87233e-06
6.43074e-08
4.89093e-06
3.63723e-08
4.89817e-06
2.3175e-08
4.89499e-06
3.1218e-08
4.88942e-06
5.47207e-08
4.88736e-06
8.19115e-08
4.88935e-06
1.03001e-07
4.89191e-06
1.14933e-07
4.89088e-06
1.18022e-07
4.88477e-06
1.1329e-07
4.8752e-06
1.01948e-07
4.86575e-06
8.74939e-08
4.85951e-06
7.3135e-08
4.85722e-06
6.14485e-08
4.85886e-06
5.38339e-08
5.19983e-08
4.86313e-06
5.22994e-06
1.62387e-08
5.27047e-06
4.04833e-08
5.26291e-06
7.18636e-08
5.22261e-06
7.66813e-08
5.18264e-06
6.31387e-08
5.15697e-06
5.68855e-08
5.14565e-06
6.60409e-08
5.14373e-06
8.38353e-08
5.14695e-06
9.97766e-08
5.15283e-06
1.09056e-07
5.1602e-06
1.10653e-07
5.16944e-06
1.0405e-07
5.18138e-06
9.00093e-08
5.19656e-06
7.23163e-08
5.21395e-06
5.57407e-08
5.2316e-06
4.37964e-08
5.24727e-06
3.81683e-08
3.86029e-08
5.26066e-06
5.47863e-06
-2.41436e-08
5.50852e-06
1.0589e-08
5.49268e-06
8.77074e-08
5.47409e-06
9.52684e-08
5.47323e-06
6.39984e-08
5.49002e-06
4.00958e-08
5.51471e-06
4.13531e-08
5.53679e-06
6.17557e-08
5.55205e-06
8.451e-08
5.563e-06
9.8105e-08
5.57468e-06
9.89802e-08
5.59108e-06
8.76497e-08
5.61297e-06
6.81189e-08
5.63858e-06
4.67017e-08
5.66416e-06
3.01631e-08
5.68627e-06
2.16837e-08
5.70257e-06
2.18705e-08
2.88241e-08
5.71235e-06
5.97774e-06
1.8886e-07
5.92122e-06
6.71087e-08
5.94865e-06
6.02841e-08
5.96431e-06
7.96089e-08
5.94701e-06
8.12935e-08
5.91249e-06
7.46191e-08
5.88579e-06
6.80539e-08
5.88443e-06
6.31139e-08
5.91126e-06
5.76806e-08
5.95728e-06
5.20859e-08
6.00922e-06
4.70401e-08
6.05532e-06
4.15437e-08
6.08906e-06
3.43785e-08
6.10979e-06
2.59726e-08
6.12094e-06
1.90152e-08
6.12736e-06
1.52699e-08
6.13304e-06
1.61807e-08
2.18597e-08
6.14001e-06
6.42562e-06
2.46928e-08
6.45046e-06
4.22688e-08
6.43962e-06
7.11172e-08
6.43677e-06
8.24655e-08
6.44054e-06
7.75179e-08
6.44947e-06
6.56967e-08
6.46334e-06
5.41827e-08
6.48081e-06
4.56452e-08
6.49841e-06
4.00782e-08
6.51233e-06
3.81676e-08
6.52054e-06
3.8828e-08
6.52351e-06
3.85666e-08
6.5236e-06
3.42957e-08
6.52398e-06
2.55891e-08
6.52666e-06
1.63406e-08
6.53194e-06
9.98621e-09
6.5382e-06
9.92488e-09
1.71502e-08
6.5429e-06
5.69444e-06
-2.84719e-08
5.70445e-06
3.22584e-08
5.72448e-06
5.10856e-08
5.73039e-06
7.65506e-08
5.73079e-06
7.71253e-08
5.73518e-06
6.13023e-08
5.742e-06
4.7363e-08
5.74767e-06
3.99792e-08
5.75106e-06
3.66809e-08
5.75456e-06
3.46706e-08
5.76184e-06
3.15535e-08
5.77546e-06
2.49447e-08
5.79571e-06
1.40408e-08
5.82091e-06
3.86599e-10
5.84893e-06
-1.16697e-08
5.87701e-06
-1.8103e-08
5.90332e-06
-1.63775e-08
-5.51992e-09
5.92599e-06
6.93806e-06
2.45416e-07
6.86367e-06
1.0665e-07
6.92193e-06
-7.17123e-09
6.95641e-06
4.20742e-08
6.95201e-06
8.15252e-08
6.94492e-06
6.83896e-08
6.95739e-06
3.48866e-08
6.98862e-06
8.75558e-09
7.0287e-06
-3.40187e-09
7.07053e-06
-7.16032e-09
7.11134e-06
-9.25581e-09
7.14856e-06
-1.22716e-08
7.1782e-06
-1.56004e-08
7.19583e-06
-1.72487e-08
7.20032e-06
-1.61583e-08
7.19371e-06
-1.14952e-08
7.18119e-06
-3.85526e-09
6.88517e-09
7.16879e-06
8.55052e-06
8.71811e-09
8.68245e-06
-2.52757e-08
8.65638e-06
1.89001e-08
8.58241e-06
1.16038e-07
8.52097e-06
1.42971e-07
8.47639e-06
1.12969e-07
8.45328e-06
5.79945e-08
8.46166e-06
3.73715e-10
8.5018e-06
-4.35425e-08
8.56188e-06
-6.72383e-08
8.62552e-06
-7.28978e-08
8.67876e-06
-6.55068e-08
8.71368e-06
-5.05213e-08
8.72941e-06
-3.29812e-08
8.73051e-06
-1.72615e-08
8.72351e-06
-4.48994e-09
8.71513e-06
4.5268e-09
1.19679e-08
8.71004e-06
1.04652e-05
-2.61693e-08
1.05594e-05
-1.19443e-07
1.05501e-05
2.81855e-08
1.05274e-05
1.38706e-07
1.05125e-05
1.5792e-07
1.05089e-05
1.16551e-07
1.0524e-05
4.29262e-08
1.05543e-05
-2.99925e-08
1.05839e-05
-7.30777e-08
1.05946e-05
-7.79954e-08
1.05783e-05
-5.6521e-08
1.05398e-05
-2.70345e-08
1.04932e-05
-3.90515e-09
1.04539e-05
6.29608e-09
1.04329e-05
3.70753e-09
1.04338e-05
-5.39896e-09
1.04552e-05
-1.68775e-08
-2.2454e-08
1.04897e-05
1.2502e-05
3.12523e-08
1.24798e-05
-9.71989e-08
1.25799e-05
-7.18849e-08
1.27211e-05
-2.47376e-09
1.28139e-05
6.50764e-08
1.28418e-05
8.86498e-08
1.28352e-05
4.95619e-08
1.28246e-05
-1.94467e-08
1.28187e-05
-6.71691e-08
1.28101e-05
-6.9354e-08
1.27912e-05
-3.76093e-08
1.27629e-05
1.26545e-09
1.27337e-05
2.52767e-08
1.27129e-05
2.7039e-08
1.27068e-05
9.87403e-09
1.27164e-05
-1.50439e-08
1.27397e-05
-4.018e-08
-5.74943e-08
1.27747e-05
1.53685e-05
-3.3905e-07
1.54177e-05
-1.46359e-07
1.53502e-05
-4.42644e-09
1.53096e-05
3.81655e-08
1.53591e-05
1.55649e-08
1.54721e-05
-2.44184e-08
1.557e-05
-4.82867e-08
1.55963e-05
-4.58014e-08
1.55532e-05
-2.40463e-08
1.54814e-05
2.44333e-09
1.54221e-05
2.16967e-08
1.53948e-05
2.86079e-08
1.53972e-05
2.28469e-08
1.54159e-05
8.34075e-09
1.54363e-05
-1.05246e-08
1.54504e-05
-2.91252e-08
1.54558e-05
-4.55873e-08
-5.93859e-08
1.54577e-05
1.86865e-05
-7.69146e-08
1.87372e-05
-1.97095e-07
1.8861e-05
-1.28232e-07
1.89574e-05
-5.82606e-08
1.90148e-05
-4.18141e-08
1.90573e-05
-6.69095e-08
1.90989e-05
-8.98313e-08
1.91362e-05
-8.31097e-08
1.9164e-05
-5.1874e-08
1.91842e-05
-1.77335e-08
1.92042e-05
1.70893e-09
1.92307e-05
2.02938e-09
1.92646e-05
-1.09632e-08
1.93008e-05
-2.79406e-08
1.93323e-05
-4.20379e-08
1.93548e-05
-5.15383e-08
1.93664e-05
-5.72363e-08
-6.32766e-08
1.93703e-05
2.33293e-05
-1.06467e-07
2.31837e-05
-5.14388e-08
2.31726e-05
-1.17188e-07
2.32285e-05
-1.14111e-07
2.32129e-05
-2.62328e-08
2.31098e-05
3.61966e-08
2.29899e-05
3.00318e-08
2.29182e-05
-1.1343e-08
2.29129e-05
-4.65674e-08
2.29563e-05
-6.11704e-08
2.30198e-05
-6.17849e-08
2.30809e-05
-5.90552e-08
2.31284e-05
-5.85162e-08
2.31616e-05
-6.11074e-08
2.31849e-05
-6.53316e-08
2.32033e-05
-6.99172e-08
2.32202e-05
-7.4143e-08
-7.85419e-08
2.32354e-05
1.6873e-05
4.62045e-08
1.68647e-05
-4.31733e-08
1.69218e-05
-1.74274e-07
1.69635e-05
-1.55742e-07
1.69807e-05
-4.34529e-08
1.69766e-05
4.02884e-08
1.69668e-05
3.98324e-08
1.69795e-05
-2.40305e-08
1.70271e-05
-9.42159e-08
1.70941e-05
-1.28108e-07
1.71511e-05
-1.18797e-07
1.71764e-05
-8.44088e-08
1.71657e-05
-4.77344e-08
1.71292e-05
-2.46153e-08
1.70842e-05
-2.03711e-08
1.70457e-05
-3.13823e-08
1.7023e-05
-5.14895e-08
-7.08873e-08
1.70154e-05
1.47688e-05
5.10731e-08
1.47172e-05
8.43305e-09
1.46367e-05
-9.37683e-08
1.46171e-05
-1.36118e-07
1.46986e-05
-1.24978e-07
1.48392e-05
-1.0026e-07
1.49557e-05
-7.66869e-08
1.49877e-05
-5.60335e-08
1.49348e-05
-4.136e-08
1.48407e-05
-3.39682e-08
1.47532e-05
-3.13281e-08
1.46995e-05
-3.07132e-08
1.46837e-05
-3.19425e-08
1.4696e-05
-3.68411e-08
1.47224e-05
-4.68074e-08
1.47518e-05
-6.07522e-08
1.47767e-05
-7.64037e-08
-9.30715e-08
1.47989e-05
1.28218e-05
3.99188e-08
1.28046e-05
2.56148e-08
1.27321e-05
-2.12622e-08
1.2691e-05
-9.50215e-08
1.27258e-05
-1.59805e-07
1.28101e-05
-1.84549e-07
1.28956e-05
-1.62182e-07
1.29489e-05
-1.09359e-07
1.29618e-05
-5.42091e-08
1.29465e-05
-1.8646e-08
1.29244e-05
-9.24121e-09
1.29131e-05
-1.93745e-08
1.29182e-05
-3.71265e-08
1.29337e-05
-5.23056e-08
1.29467e-05
-5.97803e-08
1.29461e-05
-6.02162e-08
1.29263e-05
-5.6576e-08
-5.04127e-08
1.28836e-05
1.10352e-05
9.45278e-08
1.10421e-05
1.8684e-08
1.1096e-05
-7.521e-08
1.11151e-05
-1.14122e-07
1.10772e-05
-1.21824e-07
1.10214e-05
-1.28818e-07
1.09878e-05
-1.28578e-07
1.09923e-05
-1.13877e-07
1.10289e-05
-9.07498e-08
1.10781e-05
-6.78685e-08
1.1119e-05
-5.00996e-08
1.11387e-05
-3.91428e-08
1.11363e-05
-3.47457e-08
1.11197e-05
-3.56181e-08
1.11004e-05
-4.05673e-08
1.10882e-05
-4.79357e-08
1.10884e-05
-5.6821e-08
-6.92254e-08
1.11072e-05
9.67655e-06
7.3831e-08
9.62212e-06
7.31181e-08
9.64192e-06
-9.50166e-08
9.70611e-06
-1.78305e-07
9.76361e-06
-1.79327e-07
9.77677e-06
-1.41977e-07
9.74554e-06
-9.73494e-08
9.69892e-06
-6.7255e-08
9.66555e-06
-5.73828e-08
9.65628e-06
-5.8602e-08
9.66599e-06
-5.98009e-08
9.68359e-06
-5.67444e-08
9.69949e-06
-5.06469e-08
9.70892e-06
-4.50477e-08
9.71207e-06
-4.372e-08
9.71223e-06
-4.80965e-08
9.71384e-06
-5.84338e-08
-7.07362e-08
9.71535e-06
8.62116e-06
1.57177e-07
8.59056e-06
1.03721e-07
8.53827e-06
-4.27265e-08
8.49036e-06
-1.30397e-07
8.45978e-06
-1.48751e-07
8.44731e-06
-1.29504e-07
8.44974e-06
-9.97814e-08
8.46032e-06
-7.78327e-08
8.47025e-06
-6.73086e-08
8.47338e-06
-6.17401e-08
8.47009e-06
-5.65083e-08
8.46654e-06
-5.3198e-08
8.47034e-06
-5.44398e-08
8.48616e-06
-6.08711e-08
8.51331e-06
-7.08732e-08
8.54716e-06
-8.19442e-08
8.58064e-06
-9.19096e-08
-9.82552e-08
8.60816e-06
7.5095e-06
7.34139e-08
7.54001e-06
7.32176e-08
7.48409e-06
1.31949e-08
7.42267e-06
-6.89781e-08
7.40353e-06
-1.29611e-07
7.42183e-06
-1.47806e-07
7.44493e-06
-1.22885e-07
7.44464e-06
-7.75442e-08
7.41486e-06
-3.75264e-08
7.36931e-06
-1.61857e-08
7.32814e-06
-1.53409e-08
7.30524e-06
-3.02993e-08
7.30365e-06
-5.28437e-08
7.31746e-06
-7.46887e-08
7.33636e-06
-8.97716e-08
7.35068e-06
-9.62646e-08
7.35381e-06
-9.50343e-08
-8.83129e-08
7.34386e-06
6.32626e-06
1.81789e-08
6.38921e-06
1.02684e-08
6.44362e-06
-4.12117e-08
6.45884e-06
-8.42033e-08
6.44995e-06
-1.20716e-07
6.43324e-06
-1.31099e-07
6.41424e-06
-1.03886e-07
6.3921e-06
-5.54006e-08
6.36849e-06
-1.39195e-08
6.34985e-06
2.45743e-09
6.34216e-06
-7.65262e-09
6.34655e-06
-3.46886e-08
6.35953e-06
-6.58272e-08
6.37575e-06
-9.09067e-08
6.39e-06
-1.0402e-07
6.39871e-06
-1.04974e-07
6.39994e-06
-9.62643e-08
-8.25107e-08
6.39414e-06
5.56943e-06
-5.04317e-08
5.63707e-06
-5.73739e-08
5.68103e-06
-8.51682e-08
5.69977e-06
-1.02944e-07
5.68817e-06
-1.09114e-07
5.66058e-06
-1.03512e-07
5.64278e-06
-8.60803e-08
5.64885e-06
-6.14709e-08
5.67569e-06
-4.07607e-08
5.71049e-06
-3.23477e-08
5.73868e-06
-3.584e-08
5.74955e-06
-4.55607e-08
5.73972e-06
-5.59912e-08
5.71327e-06
-6.4459e-08
5.679e-06
-6.97457e-08
5.64586e-06
-7.18385e-08
5.6207e-06
-7.11058e-08
-6.7907e-08
5.6061e-06
4.83664e-06
-7.04123e-08
4.87935e-06
-1.00084e-07
4.92691e-06
-1.32728e-07
4.93898e-06
-1.15016e-07
4.91145e-06
-8.15833e-08
4.86816e-06
-6.02216e-08
4.83464e-06
-5.25591e-08
4.82517e-06
-5.20007e-08
4.84005e-06
-5.56498e-08
4.86943e-06
-6.17189e-08
4.90005e-06
-6.64688e-08
4.92116e-06
-6.66634e-08
4.92743e-06
-6.22643e-08
4.91911e-06
-5.61361e-08
4.9005e-06
-5.11352e-08
4.87719e-06
-4.85365e-08
4.85423e-06
-4.81456e-08
-4.91912e-08
4.83552e-06
4.25208e-06
4.15199e-06
4.01926e-06
3.90425e-06
3.82266e-06
3.76244e-06
3.70988e-06
3.65788e-06
3.60223e-06
3.54051e-06
3.47405e-06
3.40738e-06
3.34512e-06
3.28898e-06
3.23785e-06
3.18931e-06
3.14116e-06
3.09197e-06
-2.92778e-07
2.92778e-07
-5.56747e-07
2.63969e-07
-8.04189e-07
2.47442e-07
-1.02083e-06
2.16644e-07
-1.18305e-06
1.62215e-07
-1.26553e-06
8.24772e-08
-1.26774e-06
2.21188e-09
-1.23171e-06
-3.60239e-08
-1.21401e-06
-1.77017e-08
-1.23042e-06
1.64115e-08
-1.28345e-06
5.30268e-08
-1.36218e-06
7.87326e-08
-1.45671e-06
9.45227e-08
-1.56716e-06
1.10454e-07
-1.69215e-06
1.24987e-07
-1.82413e-06
1.31989e-07
-1.96116e-06
1.37021e-07
-2.10892e-06
1.47761e-07
-2.27487e-06
1.65956e-07
-2.46367e-06
1.88798e-07
-2.6741e-06
2.10427e-07
-2.89843e-06
2.24327e-07
-3.12452e-06
2.26095e-07
-3.33905e-06
2.14526e-07
-3.52953e-06
1.90484e-07
-3.6855e-06
1.55971e-07
-3.79901e-06
1.1351e-07
-3.86461e-06
6.56024e-08
-3.87941e-06
1.47918e-08
-3.84254e-06
-3.68686e-08
-3.75359e-06
-8.8947e-08
-3.61237e-06
-1.41217e-07
-3.42007e-06
-1.92301e-07
-3.17912e-06
-2.40952e-07
-2.89164e-06
-2.87476e-07
-2.55861e-06
-3.33035e-07
-2.18099e-06
-3.77622e-07
-1.76175e-06
-4.19237e-07
-1.30658e-06
-4.55166e-07
-8.21778e-07
-4.84805e-07
-3.10073e-07
-5.11705e-07
2.29063e-07
-5.39136e-07
7.9294e-07
-5.63877e-07
1.36564e-06
-5.72704e-07
1.9295e-06
-5.63857e-07
2.49231e-06
-5.62809e-07
3.0545e-06
-5.62195e-07
3.53685e-06
-4.82341e-07
3.88223e-06
-3.4538e-07
4.19863e-06
-3.16408e-07
4.4249e-06
-2.26262e-07
4.21312e-06
2.11779e-07
3.58889e-06
6.24231e-07
2.91224e-06
6.76643e-07
2.42932e-06
4.82923e-07
2.24607e-06
1.83247e-07
2.07719e-06
1.68881e-07
1.67728e-06
3.99916e-07
1.16953e-06
5.0775e-07
7.34771e-07
4.34755e-07
4.45604e-07
2.89167e-07
3.44167e-07
1.01437e-07
5.50663e-07
-2.06497e-07
1.20656e-06
-6.55894e-07
2.29411e-06
-1.08756e-06
3.50338e-06
-1.20927e-06
4.46343e-06
-9.60047e-07
5.05119e-06
-5.87758e-07
4.97508e-06
7.61052e-08
3.98982e-06
9.85256e-07
2.75256e-06
1.23727e-06
1.66117e-06
1.09139e-06
1.23662e-06
4.24549e-07
1.70373e-06
-4.67111e-07
2.06733e-06
-3.636e-07
1.46167e-06
6.0566e-07
-9.66731e-08
1.55835e-06
-1.78137e-06
1.6847e-06
-3.21219e-06
1.43081e-06
-4.3569e-06
1.14471e-06
-5.2483e-06
8.91399e-07
-5.93884e-06
6.90532e-07
-6.47924e-06
5.40404e-07
-6.91159e-06
4.32349e-07
-7.26769e-06
3.56104e-07
-7.57173e-06
3.04038e-07
-7.84189e-06
2.7016e-07
-8.09245e-06
2.50564e-07
-8.33534e-06
2.42882e-07
-8.58064e-06
2.45308e-07
-8.83693e-06
2.56291e-07
-9.11114e-06
2.74202e-07
-9.408e-06
2.96867e-07
-9.72927e-06
3.21261e-07
-1.00726e-05
3.43308e-07
-1.043e-05
3.57432e-07
-1.07864e-05
3.56408e-07
-1.11179e-05
3.31445e-07
-1.13911e-05
2.73285e-07
-1.15665e-05
1.75392e-07
-1.16067e-05
4.01355e-08
-1.14907e-05
-1.15999e-07
-1.1216e-05
-2.74622e-07
-1.07936e-05
-4.22457e-07
-1.02484e-05
-5.45237e-07
-9.61442e-06
-6.33934e-07
-8.92689e-06
-6.8753e-07
-8.21645e-06
-7.10441e-07
-7.50612e-06
-7.10326e-07
-6.811e-06
-6.95123e-07
-6.13944e-06
-6.71566e-07
-5.49476e-06
-6.44674e-07
-4.87699e-06
-6.17773e-07
-4.28422e-06
-5.9277e-07
-3.71373e-06
-5.7049e-07
-3.16264e-06
-5.51094e-07
-2.62825e-06
-5.34384e-07
-2.10857e-06
-5.19684e-07
-1.6023e-06
-5.06266e-07
-1.10767e-06
-4.94629e-07
-6.21734e-07
-4.85938e-07
-1.41414e-07
-4.80319e-07
3.38085e-07
-4.795e-07
8.20567e-07
-4.82481e-07
1.29241e-06
-4.71846e-07
1.71043e-06
-4.18017e-07
2.04663e-06
-3.36195e-07
2.33902e-06
-2.92399e-07
2.60363e-06
-2.64605e-07
2.74653e-06
-1.42897e-07
2.79505e-06
-4.85255e-08
2.99983e-06
-2.0478e-07
3.30524e-06
-3.05407e-07
3.2147e-06
9.05424e-08
2.64087e-06
5.73828e-07
2.00851e-06
6.32361e-07
1.56938e-06
4.39127e-07
1.37309e-06
1.96289e-07
1.5734e-06
-2.00306e-07
2.20179e-06
-6.2839e-07
2.81406e-06
-6.12269e-07
3.01905e-06
-2.04993e-07
2.81432e-06
2.04729e-07
2.27892e-06
5.35403e-07
1.46796e-06
8.10961e-07
4.93563e-07
9.74395e-07
-5.21076e-07
1.01464e-06
-1.48986e-06
9.68779e-07
-2.36547e-06
8.75615e-07
-3.1211e-06
7.55631e-07
-3.73713e-06
6.16033e-07
-4.1979e-06
4.60766e-07
-4.49125e-06
2.93345e-07
-4.60967e-06
1.18422e-07
-4.55563e-06
-5.40317e-08
-4.33984e-06
-2.15796e-07
-3.97808e-06
-3.61761e-07
-3.49426e-06
-4.83822e-07
-2.91909e-06
-5.7516e-07
-2.28675e-06
-6.32344e-07
-1.63052e-06
-6.5623e-07
-9.79478e-07
-6.51043e-07
-3.56173e-07
-6.23305e-07
2.23873e-07
-5.80045e-07
7.51682e-07
-5.27809e-07
1.22327e-06
-4.71591e-07
1.63769e-06
-4.14416e-07
1.99728e-06
-3.59586e-07
2.30516e-06
-3.07885e-07
2.56726e-06
-2.621e-07
2.78948e-06
-2.22216e-07
2.98036e-06
-1.90884e-07
3.14017e-06
-1.59807e-07
3.27893e-06
-1.38767e-07
3.39626e-06
-1.17324e-07
3.48052e-06
-8.42611e-08
3.47061e-06
9.91041e-09
3.39242e-06
7.81936e-08
3.36137e-06
3.10482e-08
1.19153e-08
3.34945e-06
-1.99046e-07
4.91824e-07
-4.03207e-07
4.6813e-07
-5.67084e-07
4.1132e-07
-6.75714e-07
3.25273e-07
-6.97021e-07
1.83522e-07
-5.97545e-07
-1.69982e-08
-4.58274e-07
-1.37059e-07
-3.49373e-07
-1.44925e-07
-3.38223e-07
-2.88519e-08
-3.81773e-07
5.99618e-08
-4.61592e-07
1.32846e-07
-5.60876e-07
1.78017e-07
-6.77319e-07
2.10966e-07
-8.37845e-07
2.70979e-07
-1.08063e-06
3.67772e-07
-1.4209e-06
4.72258e-07
-1.84362e-06
5.59741e-07
-2.31947e-06
6.23614e-07
-2.81015e-06
6.56634e-07
-3.28146e-06
6.60112e-07
-3.71093e-06
6.39893e-07
-4.08735e-06
6.00751e-07
-4.40736e-06
5.46101e-07
-4.67129e-06
4.78461e-07
-4.88087e-06
4.0006e-07
-5.03767e-06
3.12773e-07
-5.14253e-06
2.18371e-07
-5.19577e-06
1.18842e-07
-5.1974e-06
1.64164e-08
-5.14683e-06
-8.74346e-08
-5.04394e-06
-1.91839e-07
-4.8896e-06
-2.95557e-07
-4.68475e-06
-3.97146e-07
-4.4303e-06
-4.95402e-07
-4.12832e-06
-5.8946e-07
-3.78322e-06
-6.78138e-07
-3.40036e-06
-7.60481e-07
-2.98259e-06
-8.37001e-07
-2.52918e-06
-9.08582e-07
-2.03978e-06
-9.74202e-07
-1.52008e-06
-1.03141e-06
-9.8078e-07
-1.07843e-06
-4.27067e-07
-1.11759e-06
1.51628e-07
-1.1514e-06
7.62979e-07
-1.17521e-06
1.37109e-06
-1.17092e-06
1.92789e-06
-1.11899e-06
2.47728e-06
-1.03173e-06
3.06778e-06
-9.35887e-07
3.57544e-06
-8.2406e-07
3.95091e-06
-6.01734e-07
4.40121e-06
-2.38526e-07
4.90507e-06
1.20371e-07
5.05391e-06
5.27803e-07
4.60448e-06
9.32355e-07
3.82972e-06
9.58003e-07
3.24915e-06
7.49458e-07
2.95402e-06
6.9504e-07
2.65761e-06
8.04165e-07
2.24835e-06
8.44008e-07
1.80818e-06
7.29341e-07
1.46696e-06
4.42661e-07
1.36316e-06
-1.02704e-07
1.63594e-06
-9.28667e-07
2.33958e-06
-1.7912e-06
3.31276e-06
-2.18245e-06
4.19108e-06
-1.83837e-06
4.66789e-06
-1.06457e-06
4.82949e-06
-8.54864e-08
4.87656e-06
9.3818e-07
4.28207e-06
1.83176e-06
3.36141e-06
2.01205e-06
3.11954e-06
6.66419e-07
2.33415e-06
3.18276e-07
3.50713e-07
1.61984e-06
-1.73641e-06
2.69278e-06
-3.16567e-06
2.98761e-06
-4.20385e-06
2.72288e-06
-5.05537e-06
2.28233e-06
-5.74761e-06
1.83696e-06
-6.31313e-06
1.45692e-06
-6.78082e-06
1.15822e-06
-7.17451e-06
9.34088e-07
-7.51328e-06
7.7112e-07
-7.81342e-06
6.56241e-07
-8.08779e-06
5.78416e-07
-8.34717e-06
5.29533e-07
-8.59989e-06
5.03282e-07
-8.85232e-06
4.95314e-07
-9.10904e-06
5.02029e-07
-9.3732e-06
5.20457e-07
-9.64657e-06
5.47566e-07
-9.92947e-06
5.79768e-07
-1.02205e-05
6.1231e-07
-1.0516e-05
6.38761e-07
-1.08089e-05
6.50379e-07
-1.10881e-05
6.35574e-07
-1.13365e-05
5.79827e-07
-1.15307e-05
4.67515e-07
-1.16426e-05
2.87271e-07
-1.1642e-05
3.95999e-08
-1.14983e-05
-2.59707e-07
-1.11935e-05
-5.79451e-07
-1.07362e-05
-8.7977e-07
-1.01553e-05
-1.12616e-06
-9.48973e-06
-1.29946e-06
-8.77927e-06
-1.39799e-06
-8.05623e-06
-1.43348e-06
-7.34322e-06
-1.42333e-06
-6.65353e-06
-1.38481e-06
-5.99324e-06
-1.33186e-06
-5.36349e-06
-1.27442e-06
-4.76247e-06
-1.2188e-06
-4.18683e-06
-1.16841e-06
-3.63269e-06
-1.12463e-06
-3.09621e-06
-1.08758e-06
-2.57409e-06
-1.0565e-06
-2.06386e-06
-1.02991e-06
-1.56391e-06
-1.00622e-06
-1.07278e-06
-9.85758e-07
-5.86941e-07
-9.71773e-07
-1.01458e-07
-9.65802e-07
3.79562e-07
-9.6052e-07
8.39272e-07
-9.42192e-07
1.27745e-06
-9.10028e-07
1.73943e-06
-8.79991e-07
2.24469e-06
-8.41457e-07
2.68369e-06
-7.31395e-07
2.94846e-06
-5.29376e-07
3.1301e-06
-3.24542e-07
3.3231e-06
-2.41523e-07
3.43987e-06
-3.21554e-07
3.50112e-06
-3.66656e-07
3.71809e-06
-1.26426e-07
4.05656e-06
2.3536e-07
4.15924e-06
5.29678e-07
3.77629e-06
8.22076e-07
3.14185e-06
8.3073e-07
2.78454e-06
1.5701e-07
2.96865e-06
-8.12508e-07
3.35341e-06
-9.97027e-07
3.36475e-06
-2.16328e-07
2.7745e-06
7.94976e-07
1.77413e-06
1.53577e-06
6.6967e-07
1.91542e-06
-3.62585e-07
2.00665e-06
-1.28221e-06
1.93426e-06
-2.09733e-06
1.78391e-06
-2.81275e-06
1.59104e-06
-3.42171e-06
1.36458e-06
-3.91321e-06
1.10754e-06
-4.27599e-06
8.23543e-07
-4.49967e-06
5.17028e-07
-4.57595e-06
1.94699e-07
-4.4961e-06
-1.33883e-07
-4.25834e-06
-4.53552e-07
-3.87545e-06
-7.44657e-07
-3.37069e-06
-9.88583e-07
-2.77477e-06
-1.17108e-06
-2.12194e-06
-1.28517e-06
-1.4459e-06
-1.33227e-06
-7.76128e-07
-1.32082e-06
-1.3567e-07
-1.26376e-06
4.59781e-07
-1.1755e-06
1.00138e-06
-1.06941e-06
1.48598e-06
-9.56195e-07
1.91404e-06
-8.42473e-07
2.28994e-06
-7.35488e-07
2.61736e-06
-6.35307e-07
2.90392e-06
-5.4866e-07
3.15369e-06
-4.71978e-07
3.37651e-06
-4.13709e-07
3.58565e-06
-3.68949e-07
3.77813e-06
-3.31248e-07
3.94485e-06
-2.84036e-07
4.08376e-06
-2.23177e-07
4.26149e-06
-1.67815e-07
4.39069e-06
-5.10107e-08
4.33973e-06
8.20134e-08
1.50899e-07
4.20074e-06
-3.5776e-08
5.276e-07
-1.16386e-07
5.48739e-07
-1.72485e-07
4.67419e-07
-2.0515e-07
3.57938e-07
-1.55507e-07
1.3388e-07
-1.25985e-08
-1.59907e-07
9.69882e-08
-2.46646e-07
1.77045e-07
-2.24982e-07
1.22239e-07
2.59539e-08
-2.90396e-08
2.1124e-07
-2.94461e-07
3.98268e-07
-6.9586e-07
5.79415e-07
-1.18818e-06
7.03286e-07
-1.73058e-06
8.13379e-07
-2.29219e-06
9.29387e-07
-2.85083e-06
1.0309e-06
-3.3878e-06
1.09671e-06
-3.88922e-06
1.12503e-06
-4.34859e-06
1.11601e-06
-4.76284e-06
1.07436e-06
-5.13003e-06
1.00709e-06
-5.4488e-06
9.19515e-07
-5.71862e-06
8.15919e-07
-5.9393e-06
6.99146e-07
-6.11053e-06
5.71295e-07
-6.23165e-06
4.3389e-07
-6.30172e-06
2.88442e-07
-6.31979e-06
1.36905e-07
-6.28495e-06
-1.84143e-08
-6.19732e-06
-1.75073e-07
-6.0585e-06
-3.30653e-07
-5.87109e-06
-4.82973e-07
-5.63797e-06
-6.30262e-07
-5.36232e-06
-7.71055e-07
-5.04789e-06
-9.0389e-07
-4.69842e-06
-1.02761e-06
-4.31697e-06
-1.14193e-06
-3.90688e-06
-1.24709e-06
-3.4723e-06
-1.34316e-06
-3.01597e-06
-1.43054e-06
-2.53731e-06
-1.51007e-06
-2.0337e-06
-1.58204e-06
-1.50539e-06
-1.6459e-06
-9.56313e-07
-1.70048e-06
-3.89506e-07
-1.74201e-06
1.9859e-07
-1.75902e-06
8.15035e-07
-1.73544e-06
1.44646e-06
-1.66315e-06
2.06036e-06
-1.54979e-06
2.63343e-06
-1.39713e-06
3.18482e-06
-1.15312e-06
3.73706e-06
-7.90768e-07
4.2515e-06
-3.94065e-07
4.77442e-06
4.88187e-09
5.24087e-06
4.65908e-07
5.25086e-06
9.48007e-07
4.77434e-06
1.22598e-06
4.26086e-06
1.20852e-06
3.9711e-06
1.09393e-06
3.78066e-06
1.03444e-06
3.52407e-06
9.85935e-07
3.1919e-06
7.74827e-07
2.87031e-06
2.18892e-07
2.73028e-06
-7.88646e-07
2.93045e-06
-1.99136e-06
3.43201e-06
-2.68402e-06
3.97612e-06
-2.38248e-06
4.31544e-06
-1.40389e-06
4.53335e-06
-3.03397e-07
4.42293e-06
1.0486e-06
3.60565e-06
2.64904e-06
3.07189e-06
2.5458e-06
2.23666e-06
1.50165e-06
2.1687e-07
2.33807e-06
-1.86957e-06
3.70628e-06
-3.27177e-06
4.09499e-06
-4.0958e-06
3.81164e-06
-4.66489e-06
3.29196e-06
-5.13644e-06
2.75389e-06
-5.56058e-06
2.2611e-06
-5.95036e-06
1.84669e-06
-6.3065e-06
1.51437e-06
-6.63166e-06
1.25925e-06
-6.92965e-06
1.06911e-06
-7.20623e-06
9.32821e-07
-7.46713e-06
8.39313e-07
-7.71806e-06
7.80463e-07
-7.96414e-06
7.49362e-07
-8.20968e-06
7.40853e-07
-8.45853e-06
7.5088e-07
-8.7141e-06
7.7603e-07
-8.97933e-06
8.12789e-07
-9.25654e-06
8.56982e-07
-9.54722e-06
9.02986e-07
-9.85133e-06
9.42876e-07
-1.01663e-05
9.65371e-07
-1.0485e-05
9.54257e-07
-1.07922e-05
8.87024e-07
-1.10608e-05
7.36108e-07
-1.12499e-05
4.76372e-07
-1.13095e-05
9.91739e-08
-1.11963e-05
-3.72884e-07
-1.08911e-05
-8.84603e-07
-1.04048e-05
-1.36607e-06
-9.77643e-06
-1.75457e-06
-9.05868e-06
-2.01722e-06
-8.30183e-06
-2.15484e-06
-7.54465e-06
-2.19066e-06
-6.81202e-06
-2.15596e-06
-6.11686e-06
-2.07997e-06
-5.4637e-06
-1.98502e-06
-4.85178e-06
-1.88634e-06
-4.27731e-06
-1.79327e-06
-3.73507e-06
-1.71064e-06
-3.2194e-06
-1.64029e-06
-2.72479e-06
-1.58219e-06
-2.24656e-06
-1.53474e-06
-1.78098e-06
-1.49549e-06
-1.32518e-06
-1.46202e-06
-8.78538e-07
-1.4324e-06
-4.43035e-07
-1.40728e-06
-1.69684e-08
-1.39187e-06
4.09564e-07
-1.38705e-06
8.40965e-07
-1.37359e-06
1.25803e-06
-1.32709e-06
1.65032e-06
-1.27228e-06
2.06759e-06
-1.25873e-06
2.54336e-06
-1.20716e-06
2.95798e-06
-9.43994e-07
3.19355e-06
-5.60116e-07
3.37314e-06
-4.21115e-07
3.61518e-06
-5.63589e-07
3.77023e-06
-5.21705e-07
3.82076e-06
-1.76962e-07
4.03298e-06
2.3143e-08
4.47138e-06
9.12738e-08
4.7722e-06
5.21258e-07
4.59808e-06
1.00485e-06
4.10879e-06
6.46303e-07
3.6818e-06
-3.85511e-07
3.39879e-06
-7.14023e-07
2.96462e-06
2.1784e-07
2.18799e-06
1.57161e-06
1.23071e-06
2.49305e-06
3.24407e-07
2.82172e-06
-4.80343e-07
2.8114e-06
-1.23037e-06
2.68429e-06
-1.95104e-06
2.50457e-06
-2.62752e-06
2.26752e-06
-3.22897e-06
1.96604e-06
-3.72776e-06
1.60633e-06
-4.10302e-06
1.1988e-06
-4.338e-06
7.51999e-07
-4.41928e-06
2.75984e-07
-4.33989e-06
-2.13275e-07
-4.10197e-06
-6.91469e-07
-3.71744e-06
-1.12918e-06
-3.20861e-06
-1.49742e-06
-2.60602e-06
-1.77366e-06
-1.94441e-06
-1.94678e-06
-1.25818e-06
-2.0185e-06
-5.77672e-07
-2.00133e-06
7.26379e-08
-1.91407e-06
6.74835e-07
-1.77769e-06
1.21692e-06
-1.61149e-06
1.69273e-06
-1.43201e-06
2.10154e-06
-1.25128e-06
2.44841e-06
-1.08236e-06
2.74175e-06
-9.28639e-07
2.99139e-06
-7.98307e-07
3.20664e-06
-6.87223e-07
3.39137e-06
-5.98441e-07
3.56151e-06
-5.39092e-07
3.72524e-06
-4.94978e-07
3.90665e-06
-4.65447e-07
4.10259e-06
-4.19117e-07
4.30785e-06
-3.73076e-07
4.4888e-06
-2.31959e-07
4.55081e-06
2.00045e-08
2.60632e-07
4.44108e-06
8.73034e-08
4.40297e-07
9.61317e-08
5.39911e-07
7.85775e-08
4.84973e-07
1.01384e-07
3.35132e-07
2.29989e-07
5.2747e-09
3.62647e-07
-2.92565e-07
2.42698e-07
-1.26697e-07
-7.81991e-08
9.59154e-08
-5.01792e-07
4.49547e-07
-9.73835e-07
6.83283e-07
-1.45512e-06
8.79553e-07
-1.9742e-06
1.0985e-06
-2.53883e-06
1.26792e-06
-3.13413e-06
1.40868e-06
-3.71068e-06
1.50594e-06
-4.23597e-06
1.55619e-06
-4.70487e-06
1.56561e-06
-5.11897e-06
1.53914e-06
-5.48523e-06
1.48226e-06
-5.81068e-06
1.39981e-06
-6.09942e-06
1.29583e-06
-6.3525e-06
1.1726e-06
-6.56839e-06
1.03181e-06
-6.74391e-06
8.74663e-07
-6.87511e-06
7.02497e-07
-6.95825e-06
5.17026e-07
-6.99035e-06
3.20548e-07
-6.96957e-06
1.16126e-07
-6.89548e-06
-9.25023e-08
-6.76853e-06
-3.0203e-07
-6.5904e-06
-5.08779e-07
-6.36431e-06
-7.09065e-07
-6.09491e-06
-8.99661e-07
-5.78796e-06
-1.07801e-06
-5.44941e-06
-1.24244e-06
-5.08462e-06
-1.3924e-06
-4.69842e-06
-1.52813e-06
-4.29528e-06
-1.65022e-06
-3.87903e-06
-1.75941e-06
-3.45274e-06
-1.85683e-06
-3.01884e-06
-1.94397e-06
-2.57797e-06
-2.02291e-06
-2.12794e-06
-2.09593e-06
-1.66429e-06
-2.16412e-06
-1.18091e-06
-2.2254e-06
-6.6747e-07
-2.27246e-06
-1.08847e-07
-2.29406e-06
5.00533e-07
-2.27253e-06
1.14034e-06
-2.18959e-06
1.77082e-06
-2.02762e-06
2.37147e-06
-1.75377e-06
2.95553e-06
-1.37482e-06
3.53094e-06
-9.69478e-07
4.11396e-06
-5.78136e-07
4.72678e-06
-1.46915e-07
5.31429e-06
3.60504e-07
5.66948e-06
8.70782e-07
5.61528e-06
1.26273e-06
5.283e-06
1.42621e-06
4.95214e-06
1.3653e-06
4.76866e-06
1.16941e-06
4.64171e-06
9.01785e-07
4.40911e-06
4.51492e-07
4.12009e-06
-4.99624e-07
3.98298e-06
-1.85425e-06
4.03887e-06
-2.7399e-06
4.15429e-06
-2.4979e-06
4.18426e-06
-1.43387e-06
3.89476e-06
-1.38926e-08
3.08128e-06
1.86209e-06
2.49749e-06
3.23283e-06
2.22352e-06
2.81977e-06
6.89727e-07
3.03545e-06
-1.4343e-06
4.46209e-06
-2.88776e-06
5.15973e-06
-3.67691e-06
4.88413e-06
-4.16231e-06
4.29704e-06
-4.52632e-06
3.65597e-06
-4.83322e-06
3.06079e-06
-5.11578e-06
2.54367e-06
-5.38605e-06
2.11696e-06
-5.64841e-06
1.77674e-06
-5.90436e-06
1.5152e-06
-6.15477e-06
1.31952e-06
-6.40011e-06
1.17816e-06
-6.6417e-06
1.0809e-06
-6.88124e-06
1.02001e-06
-7.12118e-06
9.893e-07
-7.36417e-06
9.83842e-07
-7.61327e-06
9.9998e-07
-7.87188e-06
1.03465e-06
-8.14387e-06
1.08477e-06
-8.43369e-06
1.14681e-06
-8.74649e-06
1.21579e-06
-9.08775e-06
1.28413e-06
-9.46219e-06
1.33982e-06
-9.87076e-06
1.36282e-06
-1.03037e-05
1.31997e-06
-1.07299e-05
1.16229e-06
-1.10877e-05
8.34219e-07
-1.12912e-05
3.02609e-07
-1.12604e-05
-4.037e-07
-1.09642e-05
-1.1808e-06
-1.04301e-05
-1.9001e-06
-9.72337e-06
-2.46133e-06
-8.91813e-06
-2.82246e-06
-8.07899e-06
-2.99398e-06
-7.25072e-06
-3.01893e-06
-6.45856e-06
-2.94812e-06
-5.71332e-06
-2.82522e-06
-5.01766e-06
-2.68068e-06
-4.37028e-06
-2.53372e-06
-3.76764e-06
-2.39591e-06
-3.20511e-06
-2.27317e-06
-2.67776e-06
-2.16765e-06
-2.181e-06
-2.07895e-06
-1.7109e-06
-2.00484e-06
-1.26375e-06
-1.94264e-06
-8.35844e-07
-1.88993e-06
-4.23541e-07