/*--------------------------------*- C++ -*----------------------------------*\
  =========                 |
  \\      /  F ield         | OpenFOAM: The Open Source CFD Toolbox
   \\    /   O peration     | Website:  https://openfoam.org
    \\  /    A nd           | Version:  6
     \\/     M anipulation  |
\*---------------------------------------------------------------------------*/
FoamFile
{
    version     2.0;
    format      ascii;
    class       volScalarField;
    location    "0.3";
    object      pMean;
}
// * * * * * * * * * * * * * * * * * * * * * * * * * * * * * * * * * * * * * //

dimensions      [0 2 -2 0 0 0 0];

internalField   nonuniform List<scalar> 
12225
(
2.06855
1.52127
1.14505
0.954034
0.853668
0.775766
0.698409
0.623369
0.556584
0.501187
0.457611
0.425383
0.404017
0.392059
0.386458
0.374549
0.335215
0.198488
1.93355
1.48288
1.1288
0.938987
0.838344
0.761721
0.685923
0.611852
0.54534
0.489792
0.445556
0.412291
0.38878
0.374012
0.362998
0.346349
0.300625
0.19479
1.80412
1.45094
1.12878
0.937669
0.832826
0.755619
0.680656
0.606792
0.539589
0.482568
0.436378
0.400062
0.372414
0.350856
0.331001
0.302334
0.249546
0.151381
1.69061
1.41645
1.12855
0.93587
0.824381
0.745257
0.670935
0.597384
0.529352
0.470603
0.421909
0.382078
0.349308
0.320378
0.290547
0.250473
0.189116
0.0902942
1.58631
1.37374
1.12054
0.929939
0.812445
0.731199
0.657844
0.5852
0.516756
0.456391
0.405099
0.361577
0.323516
0.287438
0.248458
0.199097
0.130421
0.0326018
1.48611
1.32286
1.10402
0.920753
0.799544
0.716154
0.643626
0.572098
0.50343
0.441385
0.387235
0.339707
0.296239
0.253281
0.206267
0.149254
0.0755667
-0.0201914
1.39123
1.26658
1.07973
0.907979
0.785494
0.699672
0.627161
0.556447
0.487549
0.423762
0.366557
0.31485
0.266032
0.216694
0.16276
0.0996495
0.0226801
-0.0711997
1.31198
1.2109
1.0514
0.893294
0.771627
0.683193
0.609667
0.539119
0.469789
0.404157
0.343754
0.287765
0.233744
0.178546
0.118678
0.0506464
-0.0287815
-0.121658
1.24201
1.15557
1.01895
0.875271
0.756542
0.6661
0.591029
0.520162
0.450324
0.382961
0.319475
0.259346
0.200448
0.14001
0.0751032
0.00307147
-0.0784632
-0.17102
1.16546
1.09631
0.979326
0.850011
0.736213
0.645001
0.568411
0.496932
0.426555
0.357675
0.291394
0.22745
0.164135
0.0991152
0.029984
-0.0453103
-0.128498
-0.220588
1.09604
1.03934
0.938288
0.822193
0.714483
0.623669
0.545693
0.47317
0.401923
0.331482
0.262546
0.195028
0.127642
0.0585219
-0.0142818
-0.0923418
-0.176932
-0.268614
1.04215
0.990397
0.900146
0.794554
0.692788
0.603199
0.524209
0.450446
0.378095
0.306179
0.235008
0.164552
0.0938634
0.0214862
-0.0541525
-0.134264
-0.219819
-0.311134
0.988827
0.941918
0.860032
0.763472
0.667555
0.57973
0.500081
0.425069
0.35152
0.278189
0.205034
0.132012
0.0584558
-0.016715
-0.0947136
-0.176449
-0.262597
-0.353272
0.933949
0.889883
0.81553
0.727543
0.637778
0.5524
0.472495
0.396155
0.321086
0.246062
0.170789
0.0951745
0.0187845
-0.0591031
-0.13935
-0.222574
-0.309258
-0.399383
0.873052
0.832667
0.765405
0.685257
0.601408
0.518797
0.439029
0.361463
0.284732
0.207846
0.130408
0.0522842
-0.0267651
-0.107159
-0.189404
-0.273903
-0.360907
-0.45042
0.803939
0.770153
0.709908
0.636552
0.557951
0.478151
0.398866
0.320288
0.241893
0.163102
0.0835751
0.00318531
-0.0781746
-0.160666
-0.24453
-0.329933
-0.416994
-0.505603
0.738166
0.709258
0.654497
0.586041
0.511166
0.433449
0.354544
0.275055
0.195033
0.114314
0.0327467
-0.0497018
-0.133022
-0.217193
-0.302267
-0.388237
-0.475138
-0.562822
0.687037
0.657517
0.604767
0.538902
0.465796
0.388607
0.309105
0.228241
0.146427
0.0637685
-0.0197285
-0.103991
-0.1889
-0.274313
-0.360152
-0.446319
-0.532773
-0.619345
0.650934
0.620961
0.567457
0.500425
0.42582
0.347003
0.265801
0.183144
0.0994467
0.0148715
-0.0704522
-0.156318
-0.242491
-0.328759
-0.41498
-0.50103
-0.586823
-0.672224
0.646814
0.614926
0.557625
0.48573
0.406362
0.323723
0.239769
0.155031
0.0694926
-0.0168509
-0.103798
-0.191004
-0.278135
-0.364963
-0.451354
-0.537223
-0.622481
-0.707006
0.664088
0.63009
0.566407
0.48691
0.40109
0.314009
0.227313
0.140702
0.0535071
-0.0344678
-0.122897
-0.211267
-0.299179
-0.386428
-0.47294
-0.558662
-0.64352
-0.727423
0.706137
0.663831
0.589225
0.498775
0.40465
0.312822
0.223774
0.135561
0.0466801
-0.0430394
-0.132958
-0.222375
-0.310903
-0.398441
-0.48501
-0.570608
-0.655182
-0.73863
0.76239
0.708704
0.619139
0.514678
0.411329
0.315317
0.224682
0.135215
0.0446767
-0.0467922
-0.138114
-0.228442
-0.317487
-0.405289
-0.491952
-0.577481
-0.661823
-0.744862
0.824502
0.759051
0.651111
0.530197
0.417956
0.319217
0.227851
0.137204
0.0449035
-0.048205
-0.140611
-0.231499
-0.320791
-0.408697
-0.495373
-0.580822
-0.664946
-0.747651
0.892681
0.811857
0.681324
0.543532
0.424857
0.325275
0.233449
0.141219
0.0469594
-0.0476263
-0.140829
-0.232055
-0.321483
-0.409444
-0.496113
-0.581484
-0.665469
-0.747926
0.967911
0.863167
0.704024
0.551525
0.430769
0.332306
0.239896
0.145567
0.0492249
-0.0466689
-0.140489
-0.231979
-0.321538
-0.409553
-0.496179
-0.581406
-0.66517
-0.747415
1.06211
0.912214
0.717094
0.554354
0.436232
0.340301
0.247151
0.150644
0.0524948
-0.0443826
-0.138671
-0.230464
-0.320312
-0.408582
-0.495382
-0.580662
-0.664367
-0.746429
1.18071
0.957661
0.721427
0.552996
0.440135
0.347141
0.253551
0.155708
0.0567915
-0.0401928
-0.134318
-0.225944
-0.315683
-0.403847
-0.49048
-0.575474
-0.658876
-0.741124
1.30911
0.996358
0.720758
0.548341
0.439006
0.347117
0.252439
0.153307
0.0537491
-0.0433417
-0.137384
-0.228918
-0.318607
-0.406691
-0.493241
-0.577989
-0.660855
-0.741306
1.44088
1.03836
0.737495
0.561876
0.452767
0.359928
0.263534
0.162881
0.0623072
-0.0354285
-0.129949
-0.221885
-0.311945
-0.400321
-0.48714
-0.572011
-0.655124
-0.735731
-3.28052
-3.31489
-3.35459
-3.37212
-3.35456
-3.312
-3.27934
-3.29458
-3.3838
-3.55591
-3.80342
-4.10679
-4.44036
-4.77804
-5.09724
-5.38054
-5.6157
-5.79544
-5.91684
-5.98097
-5.99248
-5.95931
-5.89023
-5.79317
-5.67805
-5.55769
-5.44911
-5.36755
-5.31601
-5.29196
-5.30029
-5.34896
-5.44459
-5.582
-5.74376
-5.92042
-6.11646
-6.33827
-6.59273
-6.88791
-7.22723
-7.60663
-8.01045
-8.41203
-8.79057
-9.1448
-9.4788
-9.77842
-10.0214
-10.2296
-10.4367
-10.6475
-10.838
-10.9843
-11.0876
-11.1716
-11.2641
-11.384
-11.5232
-11.6691
-11.8221
-11.9892
-12.1892
-12.4277
-12.6915
-12.9634
-13.2288
-13.4688
-13.6632
-13.801
-13.8682
-13.8495
-13.7574
-13.6352
-13.5155
-13.4078
-13.3158
-13.2577
-13.2464
-13.2708
-13.2935
-13.2766
-13.1928
-13.0461
-12.8676
-12.6547
-12.3905
-12.0694
-11.6851
-11.2249
-10.6858
-10.0856
-9.44304
-8.79128
-8.19516
-7.66361
-7.14241
-6.57913
-5.9459
-5.244
-4.47809
-3.63752
-2.76742
-1.94529
-1.17732
-0.436674
0.242091
0.812291
1.29372
1.71814
2.10601
2.48234
2.87305
3.30055
3.77922
4.31617
4.91182
5.55979
6.24607
6.94953
7.64297
8.309
8.9434
9.49739
9.90769
10.1895
10.381
10.5026
10.5806
10.6628
10.8002
11.0017
11.2618
11.5172
11.6098
11.4895
11.2736
11.0203
10.7454
10.546
10.4996
10.6158
10.8847
11.2727
11.7191
12.1803
12.6671
13.2112
13.8231
14.4885
15.1802
15.8752
16.5561
17.2066
17.7907
18.2416
18.5022
18.5867
18.5668
18.499
18.4075
18.2994
18.1783
18.0567
17.963
17.9222
17.939
18.0049
18.1054
18.2192
18.315
18.3583
18.3299
18.2358
18.1004
17.9524
17.8191
17.7227
17.7105
17.7515
-3.46209
-3.50406
-3.56191
-3.60865
-3.63053
-3.64121
-3.67279
-3.75527
-3.90454
-4.12044
-4.39071
-4.69657
-5.01703
-5.3321
-5.62464
-5.88061
-6.0894
-6.24488
-6.34518
-6.39212
-6.38977
-6.3446
-6.26671
-6.16727
-6.05522
-5.94072
-5.83608
-5.75517
-5.70622
-5.68656
-5.70979
-5.78712
-5.90817
-6.06786
-6.25579
-6.45797
-6.68338
-6.93398
-7.20755
-7.51485
-7.85519
-8.21888
-8.59708
-8.9792
-9.35036
-9.70111
-10.0375
-10.3543
-10.6317
-10.8723
-11.0962
-11.3009
-11.476
-11.6141
-11.722
-11.8141
-11.9086
-12.0257
-12.1654
-12.3166
-12.4773
-12.6616
-12.8768
-13.1172
-13.3743
-13.6335
-13.8787
-14.0893
-14.2487
-14.3485
-14.3866
-14.3581
-14.2778
-14.1822
-14.0963
-14.0233
-13.9544
-13.9094
-13.9028
-13.9144
-13.9103
-13.8702
-13.7788
-13.6246
-13.4299
-13.1874
-12.8864
-12.5224
-12.0962
-11.6115
-11.0704
-10.4813
-9.87307
-9.27895
-8.73489
-8.22355
-7.69231
-7.10375
-6.43953
-5.70362
-4.91723
-4.08545
-3.23981
-2.4314
-1.66045
-0.930482
-0.280239
0.265901
0.746164
1.18452
1.59758
2.00618
2.43267
2.89537
3.40671
3.97353
4.5968
5.27
5.97861
6.70056
7.41186
8.07952
8.68915
9.21437
9.61602
9.9102
10.1174
10.2542
10.3445
10.4361
10.5804
10.7866
11.0153
11.1781
11.1791
11.0317
10.8211
10.5775
10.3391
10.1972
10.1996
10.3515
10.6404
11.028
11.4588
11.9094
12.4007
12.9557
13.5783
14.2539
14.9569
15.6644
16.3577
17.0138
17.5854
18.0076
18.2483
18.3403
18.3441
18.2984
18.2211
18.1192
17.9997
17.8818
17.7968
17.7648
17.788
17.8596
17.9649
18.081
18.1768
18.2182
18.1881
18.0919
17.9531
17.7957
17.6467
17.5211
17.468
17.437
-3.58168
-3.62006
-3.69692
-3.80293
-3.92723
-4.071
-4.24589
-4.46099
-4.71645
-5.0043
-5.31122
-5.62256
-5.92532
-6.20865
-6.46332
-6.68115
-6.85539
-6.98203
-7.05938
-7.0879
-7.07113
-7.01516
-6.92854
-6.82185
-6.70516
-6.58941
-6.48401
-6.39803
-6.34434
-6.33104
-6.3675
-6.4599
-6.59776
-6.77534
-6.98794
-7.22256
-7.47802
-7.75833
-8.06237
-8.39085
-8.73795
-9.09512
-9.45785
-9.82642
-10.2029
-10.5795
-10.9441
-11.2865
-11.6013
-11.8803
-12.1238
-12.3274
-12.4887
-12.6226
-12.7407
-12.8497
-12.9571
-13.0713
-13.2062
-13.3667
-13.5474
-13.7526
-13.9792
-14.2177
-14.4582
-14.6882
-14.8908
-15.0509
-15.1623
-15.226
-15.2469
-15.2317
-15.1961
-15.1516
-15.0997
-15.0446
-14.9927
-14.9615
-14.9486
-14.9291
-14.8904
-14.8238
-14.7177
-14.5538
-14.3296
-14.0418
-13.6904
-13.2767
-12.8068
-12.2957
-11.7558
-11.201
-10.6587
-10.1473
-9.6601
-9.16075
-8.60705
-7.97663
-7.2672
-6.49941
-5.70217
-4.89087
-4.0775
-3.28002
-2.51366
-1.8105
-1.19096
-0.648538
-0.154842
0.3087
0.761156
1.21942
1.69993
2.2154
2.77612
3.38929
4.05666
4.77045
5.51398
6.26331
6.98395
7.64039
8.21874
8.71373
9.11748
9.43235
9.66205
9.81825
9.925
10.0343
10.1903
10.3771
10.5164
10.5338
10.4327
10.2648
10.0561
9.83389
9.66178
9.59576
9.65798
9.85516
10.1697
10.5572
10.9741
11.423
11.926
12.4951
13.1314
13.8223
14.5445
15.2725
15.9828
16.6417
17.1908
17.5769
17.8038
17.9155
17.9516
17.9344
17.876
17.7839
17.6717
17.5661
17.4975
17.4809
17.5171
17.5991
17.711
17.8281
17.92
17.9572
17.9259
17.8276
17.6817
17.5074
17.3324
17.1735
17.0729
16.9683
-3.66088
-3.71157
-3.84173
-4.05218
-4.32056
-4.6218
-4.94212
-5.27339
-5.60934
-5.94427
-6.27131
-6.58255
-6.87061
-7.12978
-7.35624
-7.54658
-7.69709
-7.80488
-7.86858
-7.88826
-7.86695
-7.8107
-7.72683
-7.6247
-7.51291
-7.39972
-7.29577
-7.21126
-7.15702
-7.14466
-7.18226
-7.27056
-7.40547
-7.58132
-7.79288
-8.03384
-8.30268
-8.60194
-8.93069
-9.2795
-9.64402
-10.0204
-10.4033
-10.7997
-11.2166
-11.6437
-12.0596
-12.4472
-12.7979
-13.1017
-13.3532
-13.5608
-13.7298
-13.8717
-13.9964
-14.1106
-14.2196
-14.3341
-14.4679
-14.6302
-14.8199
-15.032
-15.2593
-15.4907
-15.7119
-15.9089
-16.0694
-16.1887
-16.2691
-16.3191
-16.3473
-16.3604
-16.3618
-16.3466
-16.3125
-16.2663
-16.2207
-16.1858
-16.1539
-16.1112
-16.0542
-15.9744
-15.85
-15.6629
-15.4058
-15.0791
-14.689
-14.2441
-13.7546
-13.2352
-12.7052
-12.1917
-11.7123
-11.2569
-10.7999
-10.3014
-9.72405
-9.05455
-8.30806
-7.52449
-6.73638
-5.94424
-5.14615
-4.35979
-3.61487
-2.93373
-2.32014
-1.76485
-1.2502
-0.755668
-0.26027
0.250113
0.786691
1.35828
1.9737
2.63994
3.35813
4.11856
4.90087
5.67272
6.39342
7.03524
7.59632
8.08132
8.48958
8.81713
9.06051
9.22639
9.34605
9.47519
9.63562
9.76845
9.78332
9.67975
9.51604
9.32155
9.10522
8.91536
8.80425
8.79981
8.91597
9.15709
9.49976
9.89694
10.3174
10.777
11.2935
11.8749
12.5245
13.2332
13.9781
14.7286
15.454
16.1114
16.6391
17.0043
17.2357
17.3746
17.4427
17.4514
17.4106
17.3317
17.2347
17.1485
17.0999
17.1011
17.1522
17.2464
17.3666
17.4847
17.5696
17.5992
17.5644
17.4624
17.3052
17.1081
16.9022
16.7145
16.5758
16.43
-3.79457
-3.89631
-4.12765
-4.45965
-4.84458
-5.24797
-5.65332
-6.05112
-6.43414
-6.79885
-7.14411
-7.46697
-7.76209
-8.02402
-8.24919
-8.43532
-8.58051
-8.68304
-8.74258
-8.76111
-8.74262
-8.69235
-8.61729
-8.52565
-8.42593
-8.3275
-8.23976
-8.17069
-8.12853
-8.12251
-8.15792
-8.23488
-8.35123
-8.50531
-8.69803
-8.92962
-9.20029
-9.51143
-9.85744
-10.2294
-10.6229
-11.0392
-11.4769
-11.9376
-12.4161
-12.8956
-13.3548
-13.7763
-14.1502
-14.4756
-14.7524
-14.9802
-15.1625
-15.3096
-15.4321
-15.5377
-15.6329
-15.7329
-15.8535
-16.0038
-16.1832
-16.3859
-16.6029
-16.8199
-17.0206
-17.191
-17.3231
-17.419
-17.4878
-17.5393
-17.5778
-17.6066
-17.6221
-17.6179
-17.5951
-17.5596
-17.5193
-17.478
-17.4317
-17.378
-17.3136
-17.2219
-17.0786
-16.8698
-16.5904
-16.2428
-15.8364
-15.3832
-14.8918
-14.3768
-13.8687
-13.397
-12.9578
-12.527
-12.076
-11.5645
-10.9602
-10.26
-9.49405
-8.71136
-7.93663
-7.15493
-6.36804
-5.60399
-4.88581
-4.21508
-3.59408
-3.02146
-2.48263
-1.95394
-1.4154
-0.854697
-0.263762
0.364016
1.03643
1.7594
2.53189
3.34091
4.15946
4.94792
5.66789
6.30355
6.85956
7.34059
7.74711
8.07692
8.32278
8.4889
8.61659
8.75745
8.9011
8.94889
8.84903
8.67202
8.46944
8.24541
8.02593
7.86804
7.80157
7.84336
8.00552
8.28651
8.65855
9.07519
9.5137
9.99168
10.5229
11.1166
11.7798
12.5071
13.2747
14.046
14.7822
15.4348
15.9483
16.3098
16.56
16.732
16.8344
16.8705
16.8495
16.7873
16.7086
16.6437
16.6167
16.637
16.7032
16.8085
16.936
17.0544
17.1318
17.1527
17.1123
17.0039
16.8315
16.608
16.3708
16.1578
15.9937
15.8328
-4.0652
-4.2422
-4.57353
-4.98302
-5.4226
-5.87119
-6.31787
-6.75657
-7.18219
-7.58995
-7.97571
-8.33397
-8.65824
-8.94281
-9.18488
-9.38428
-9.54028
-9.65154
-9.71828
-9.74277
-9.72971
-9.68631
-9.62065
-9.54133
-9.45834
-9.38167
-9.31884
-9.27459
-9.25308
-9.25915
-9.29588
-9.36386
-9.46412
-9.60054
-9.77913
-10.0052
-10.2813
-10.6062
-10.9733
-11.3762
-11.8125
-12.283
-12.7861
-13.3126
-13.8434
-14.3563
-14.8357
-15.2732
-15.6633
-16.0072
-16.3062
-16.5532
-16.7468
-16.8927
-17.0008
-17.0811
-17.148
-17.2206
-17.3145
-17.439
-17.5938
-17.7737
-17.9685
-18.1628
-18.3398
-18.4859
-18.5958
-18.6765
-18.7403
-18.7952
-18.8384
-18.8697
-18.8874
-18.8917
-18.885
-18.8672
-18.8353
-18.7896
-18.7326
-18.6691
-18.5942
-18.4875
-18.3298
-18.1105
-17.8256
-17.4778
-17.0757
-16.6282
-16.1432
-15.6433
-15.1677
-14.7344
-14.3192
-13.8957
-13.4358
-12.9013
-12.2689
-11.5474
-10.7765
-10.0019
-9.23732
-8.46548
-7.69854
-6.96725
-6.27436
-5.60782
-4.97615
-4.38465
-3.8186
-3.2539
-2.67237
-2.06242
-1.41747
-0.732467
-0.00108036
0.780539
1.60787
2.46306
3.31243
4.11411
4.83713
5.47376
6.02834
6.50448
6.90515
7.2307
7.47133
7.63241
7.76067
7.89622
7.99396
7.94537
7.76346
7.54592
7.31548
7.06998
6.85779
6.72843
6.69649
6.77579
6.97627
7.2906
7.68916
8.1287
8.59092
9.09044
9.63856
10.2461
10.9235
11.6685
12.4565
13.2459
13.9901
14.6385
15.146
15.5153
15.792
16.0007
16.1395
16.2052
16.2073
16.165
16.1068
16.0645
16.0612
16.1027
16.184
16.2981
16.4291
16.545
16.6147
16.628
16.5814
16.4639
16.2745
16.026
15.7611
15.5267
15.347
15.1835
-4.51582
-4.7317
-5.08991
-5.50714
-5.95308
-6.41893
-6.89634
-7.37693
-7.85298
-8.31594
-8.75621
-9.16355
-9.52965
-9.84959
-10.1221
-10.3479
-10.5259
-10.6557
-10.7386
-10.7773
-10.7772
-10.7464
-10.6952
-10.6346
-10.5752
-10.5264
-10.4946
-10.4822
-10.4902
-10.52
-10.5721
-10.6478
-10.7513
-10.8899
-11.0734
-11.3099
-11.6031
-11.9517
-12.3522
-12.7978
-13.2844
-13.8107
-14.3696
-14.9431
-15.5038
-16.0305
-16.5158
-16.9582
-17.3551
-17.7077
-18.0134
-18.2622
-18.4505
-18.58
-18.6599
-18.7067
-18.7398
-18.7781
-18.838
-18.928
-19.0483
-19.1942
-19.3559
-19.5177
-19.6635
-19.7815
-19.8688
-19.9342
-19.9932
-20.0491
-20.0934
-20.1247
-20.1466
-20.1632
-20.1734
-20.1679
-20.1373
-20.0826
-20.0121
-19.9331
-19.8409
-19.7188
-19.5525
-19.3328
-19.056
-18.7235
-18.3384
-17.905
-17.4345
-16.9612
-16.5261
-16.1296
-15.7347
-15.315
-14.8438
-14.2874
-13.6331
-12.9
-12.1307
-11.3629
-10.6048
-9.84639
-9.1071
-8.41035
-7.7368
-7.06937
-6.42386
-5.8105
-5.21529
-4.61532
-3.99292
-3.33627
-2.63893
-1.89691
-1.10653
-0.267733
0.610398
1.50437
2.37684
3.18998
3.92101
4.56378
5.11924
5.59095
5.98468
6.30172
6.53195
6.68411
6.80296
6.91427
6.9469
6.81264
6.58042
6.33971
6.08824
5.83283
5.63599
5.53299
5.53082
5.64225
5.87393
6.21414
6.63358
7.09377
7.57884
8.09969
8.66594
9.28897
9.98115
10.7424
11.5482
12.3531
13.1048
13.752
14.2606
14.6445
14.9506
15.1971
15.3728
15.469
15.4955
15.4746
15.4377
15.4188
15.4408
15.5053
15.6023
15.7238
15.8553
15.9656
16.0272
16.0349
15.9821
15.8542
15.6494
15.3816
15.0959
14.8448
14.6543
14.492
-5.03144
-5.22964
-5.55394
-5.94847
-6.3948
-6.87957
-7.38948
-7.91304
-8.43953
-8.95715
-9.45307
-9.91414
-10.3305
-10.697
-11.0124
-11.2767
-11.4893
-11.6502
-11.7606
-11.8235
-11.845
-11.835
-11.8056
-11.7698
-11.7392
-11.7224
-11.7237
-11.7447
-11.7849
-11.8436
-11.9214
-12.0214
-12.1505
-12.3179
-12.5352
-12.811
-13.1474
-13.543
-13.9948
-14.4945
-15.0347
-15.6105
-16.2086
-16.8055
-17.3774
-17.91
-18.3989
-18.8414
-19.2358
-19.5825
-19.8769
-20.1076
-20.2709
-20.3692
-20.4136
-20.4236
-20.4185
-20.4169
-20.4346
-20.4803
-20.5549
-20.6548
-20.7705
-20.8887
-20.9951
-21.08
-21.1421
-21.1902
-21.2422
-21.2973
-21.3424
-21.3758
-21.402
-21.4244
-21.437
-21.4265
-21.3846
-21.3141
-21.2251
-21.1253
-21.0122
-20.8758
-20.7049
-20.4914
-20.2306
-19.921
-19.5592
-19.1469
-18.7018
-18.2666
-17.8791
-17.5217
-17.1507
-16.7406
-16.2668
-15.7013
-15.0389
-14.3051
-13.5403
-12.7749
-12.0185
-11.2712
-10.5548
-9.88194
-9.21674
-8.54322
-7.88275
-7.24802
-6.62673
-5.99735
-5.34088
-4.64438
-3.90014
-3.10511
-2.25955
-1.36863
-0.446488
0.47892
1.3704
2.19709
2.94167
3.59502
4.1537
4.62179
5.00753
5.31324
5.53109
5.67262
5.77485
5.84959
5.81573
5.61771
5.35678
5.101
4.83341
4.57685
4.3985
4.31994
4.34434
4.48313
4.73913
5.09777
5.53137
6.00678
6.50997
7.04913
7.63304
8.27261
8.98029
9.75715
10.5787
11.397
12.1557
12.8045
13.319
13.7206
14.0563
14.3396
14.551
14.6771
14.7281
14.7288
14.713
14.717
14.7638
14.8512
14.9639
15.0917
15.2215
15.3249
15.3794
15.3835
15.3257
15.1883
14.9726
14.6936
14.3959
14.1344
13.9364
13.7764
-5.44189
-5.60981
-5.90365
-6.2915
-6.74952
-7.25677
-7.79778
-8.35956
-8.92915
-9.49361
-10.0401
-10.5554
-11.0284
-11.4518
-11.822
-12.1378
-12.3991
-12.6058
-12.7585
-12.8603
-12.9175
-12.9397
-12.9389
-12.9297
-12.9258
-12.9363
-12.9651
-13.0136
-13.0812
-13.1683
-13.278
-13.4169
-13.5934
-13.8183
-14.1029
-14.4525
-14.8648
-15.3351
-15.857
-16.4193
-17.0113
-17.6252
-18.2467
-18.8536
-19.4291
-19.9657
-20.4572
-20.8957
-21.279
-21.6089
-21.8804
-22.0819
-22.2101
-22.2699
-22.2742
-22.2411
-22.1885
-22.1342
-22.0951
-22.0818
-22.0974
-22.1399
-22.202
-22.2723
-22.3387
-22.3922
-22.4311
-22.4623
-22.5027
-22.5515
-22.593
-22.6233
-22.6437
-22.6543
-22.6487
-22.6156
-22.5504
-22.457
-22.3439
-22.2177
-22.0797
-21.9267
-21.752
-21.5476
-21.3067
-21.0229
-20.688
-20.3041
-19.8951
-19.5084
-19.1751
-18.863
-18.5239
-18.133
-17.6683
-17.1079
-16.4519
-15.7277
-14.9715
-14.2079
-13.4496
-12.7053
-11.9962
-11.3284
-10.6594
-9.97757
-9.30716
-8.65797
-8.01825
-7.36811
-6.68726
-5.96038
-5.17779
-4.33739
-3.44399
-2.50834
-1.54887
-0.595816
0.315587
1.15975
1.92103
2.5863
3.14902
3.61402
3.99197
4.28756
4.49647
4.63012
4.7145
4.74958
4.65922
4.41835
4.14024
3.87293
3.5933
3.34059
3.1809
3.12503
3.17321
3.33432
3.6076
3.97711
4.41761
4.90133
5.41597
5.96847
6.56797
7.22411
7.94786
8.7401
9.57629
10.4061
11.1704
11.8218
12.3445
12.7646
13.1282
13.4452
13.6892
13.8432
13.9184
13.941
13.9462
13.9715
14.0405
14.148
14.2748
14.4083
14.5361
14.6333
14.6826
14.6851
14.6238
14.4806
14.2607
13.9795
13.6788
13.4135
13.2118
13.0551
-5.6813
-5.84306
-6.13935
-6.53573
-7.00305
-7.52339
-8.086
-8.67925
-9.2888
-9.90048
-10.5011
-11.0773
-11.6172
-12.1107
-12.5508
-12.9335
-13.2575
-13.5214
-13.7252
-13.8727
-13.9708
-14.0293
-14.0605
-14.0798
-14.1017
-14.1361
-14.1883
-14.2611
-14.3558
-14.4759
-14.6284
-14.8221
-15.0658
-15.3689
-15.7392
-16.1762
-16.6737
-17.2234
-17.8142
-18.4328
-19.067
-19.7095
-20.3485
-20.9662
-21.5507
-22.0948
-22.5879
-23.0183
-23.3845
-23.6911
-23.9347
-24.1046
-24.1973
-24.2174
-24.1777
-24.0952
-23.9873
-23.8715
-23.7656
-23.6836
-23.6331
-23.6149
-23.6239
-23.6507
-23.6832
-23.7111
-23.7305
-23.746
-23.771
-23.8048
-23.8326
-23.8489
-23.8494
-23.832
-23.7931
-23.7261
-23.6287
-23.5045
-23.3602
-23.2016
-23.0342
-22.8611
-22.6802
-22.4835
-22.2615
-22.0031
-21.6971
-21.3476
-20.9832
-20.6527
-20.3798
-20.1208
-19.822
-19.4586
-19.0113
-18.465
-17.8254
-17.1194
-16.3777
-15.6199
-14.8603
-14.1121
-13.3944
-12.7138
-12.0312
-11.3406
-10.6657
-10.0097
-9.35929
-8.69628
-7.99986
-7.2517
-6.4403
-5.56489
-4.63392
-3.66229
-2.67171
-1.69373
-0.762085
0.099994
0.876644
1.55249
2.11984
2.5841
2.95797
3.24914
3.45676
3.58889
3.65899
3.65864
3.52522
3.25663
2.96761
2.69161
2.40437
2.15854
2.01695
1.98201
2.05061
2.22845
2.51174
2.88427
3.32371
3.80792
4.32685
4.88733
5.49969
6.17172
6.9115
7.71849
8.5676
9.4064
10.1741
10.8275
11.3585
11.7961
12.1838
12.529
12.8009
12.9801
13.0787
13.1237
13.15
13.1951
13.2822
13.4053
13.5433
13.682
13.8098
13.9037
13.9501
13.9522
13.8902
13.7462
13.5298
13.2552
12.9598
12.6967
12.4949
12.3424
-5.81058
-5.97801
-6.27766
-6.67133
-7.14102
-7.67551
-8.26372
-8.89234
-9.54665
-10.2123
-10.8749
-11.5202
-12.1343
-12.7047
-13.2212
-13.6769
-14.0684
-14.3936
-14.6522
-14.8483
-14.9902
-15.0896
-15.1605
-15.2185
-15.2772
-15.3459
-15.4303
-15.5338
-15.6595
-15.8141
-16.0079
-16.252
-16.5557
-16.9269
-17.3687
-17.8756
-18.4384
-19.0464
-19.6871
-20.3483
-21.017
-21.6849
-22.343
-22.9768
-23.5752
-24.1291
-24.6241
-25.0471
-25.3982
-25.6844
-25.9034
-26.0448
-26.1051
-26.0887
-26.007
-25.8761
-25.7143
-25.5404
-25.3728
-25.2289
-25.1194
-25.0474
-25.0096
-24.9974
-24.9988
-25.0016
-24.9997
-24.9959
-24.9996
-25.0084
-25.0112
-25.003
-24.9762
-24.9254
-24.8499
-24.747
-24.6137
-24.4529
-24.2715
-24.077
-23.8788
-23.6847
-23.4953
-23.3029
-23.0955
-22.8595
-22.5828
-22.2722
-21.9572
-21.6859
-21.4753
-21.2722
-21.0164
-20.6825
-20.2558
-19.7287
-19.1123
-18.431
-17.7098
-16.9644
-16.2079
-15.4541
-14.7214
-14.0205
-13.32
-12.6184
-11.9387
-11.2778
-10.6209
-9.95084
-9.2451
-8.48282
-7.65154
-6.7518
-5.79431
-4.79601
-3.78153
-2.78382
-1.83607
-0.960554
-0.172837
0.512105
1.08635
1.55474
1.93076
2.22512
2.44006
2.57818
2.64047
2.61306
2.44948
2.164
1.86953
1.58921
1.29972
1.06257
0.937323
0.920063
1.00445
1.19322
1.47949
1.8471
2.27716
2.75401
3.27075
3.83462
4.45714
5.14377
5.89855
6.71837
7.57701
8.42077
9.18878
9.84215
10.3798
10.8321
11.2384
11.6045
11.8978
12.0986
12.2195
12.2868
12.3337
12.3966
12.4984
12.6328
12.7791
12.9231
13.054
13.1497
13.196
13.1987
13.139
12.9998
12.7937
12.5333
12.2503
11.9945
11.7954
11.6474
-5.86916
-6.0297
-6.31824
-6.71046
-7.19336
-7.75422
-8.37908
-9.05286
-9.76041
-10.4869
-11.2168
-11.9336
-12.6209
-13.2636
-13.8494
-14.3699
-14.8215
-15.2046
-15.522
-15.7788
-15.9829
-16.1443
-16.2751
-16.3882
-16.4944
-16.6014
-16.7152
-16.841
-16.9849
-17.1574
-17.372
-17.6416
-17.9766
-18.3844
-18.8656
-19.4121
-20.0132
-20.657
-21.3318
-22.0257
-22.7237
-23.4146
-24.0907
-24.7401
-25.3514
-25.9141
-26.4131
-26.8354
-27.1814
-27.4577
-27.6612
-27.7803
-27.8131
-27.7656
-27.6487
-27.4783
-27.2743
-27.0565
-26.8443
-26.6564
-26.5044
-26.3914
-26.3151
-26.2684
-26.2399
-26.217
-26.192
-26.166
-26.1438
-26.1198
-26.0886
-26.0498
-25.9948
-25.9141
-25.806
-25.6701
-25.5033
-25.3064
-25.087
-24.8558
-24.6269
-24.4123
-24.2141
-24.0234
-23.8262
-23.6091
-23.3614
-23.0919
-22.8277
-22.611
-22.455
-22.302
-22.0834
-21.7749
-21.3678
-20.8619
-20.2718
-19.6201
-18.9259
-18.2004
-17.4522
-16.6933
-15.9468
-15.2284
-14.5119
-13.7981
-13.1093
-12.441
-11.7784
-11.104
-10.3922
-9.62007
-8.77499
-7.85913
-6.88446
-5.86909
-4.84015
-3.8322
-2.8782
-1.999
-1.20721
-0.515043
0.0689334
0.547173
0.932631
1.23842
1.46892
1.62069
1.6838
1.64044
1.45916
1.16675
0.873255
0.594479
0.308458
0.0799429
-0.0329131
-0.0375375
0.0571546
0.250968
0.533477
0.8889
1.30224
1.7648
2.2742
2.8379
3.46776
4.16671
4.93395
5.76284
6.62563
7.46879
8.23318
8.88405
9.42561
9.8884
10.3066
10.6846
10.9921
11.2103
11.3514
11.4399
11.5061
11.5848
11.6986
11.8418
11.9946
12.1439
12.281
12.3838
12.4342
12.439
12.3843
12.2548
12.064
11.8234
11.5578
11.3132
11.1193
10.9755
-5.82051
-5.9761
-6.26692
-6.67626
-7.18958
-7.79129
-8.4654
-9.19552
-9.96502
-10.7569
-11.5534
-12.3359
-13.0864
-13.7892
-14.4332
-15.0121
-15.5235
-15.9692
-16.3537
-16.6811
-16.956
-17.1846
-17.3745
-17.535
-17.6752
-17.804
-17.9305
-18.0625
-18.209
-18.3833
-18.6001
-18.8728
-19.2127
-19.6276
-20.1178
-20.6754
-21.2892
-21.9468
-22.6369
-23.3485
-24.0654
-24.7723
-25.461
-26.1215
-26.7432
-27.3152
-27.823
-28.2542
-28.6074
-28.8882
-29.0905
-29.1992
-29.2135
-29.1433
-29.0008
-28.8034
-28.5735
-28.3321
-28.0981
-27.8892
-27.7146
-27.5764
-27.4736
-27.4013
-27.3499
-27.3066
-27.2622
-27.2155
-27.1683
-27.1134
-27.0489
-26.9799
-26.9004
-26.798
-26.6654
-26.5011
-26.3044
-26.0756
-25.8221
-25.5577
-25.3005
-25.0661
-24.8575
-24.6645
-24.4713
-24.2674
-24.0463
-23.8176
-23.6032
-23.432
-23.3155
-23.1993
-23.0069
-22.715
-22.3227
-21.8362
-21.2719
-20.6507
-19.9867
-19.2849
-18.5493
-17.7906
-17.0363
-16.3065
-15.5789
-14.8547
-14.1564
-13.48
-12.8112
-12.1316
-11.4135
-10.6322
-9.77633
-8.85017
-7.86648
-6.8442
-5.81266
-4.80734
-3.86076
-2.99111
-2.20498
-1.5098
-0.914984
-0.421839
-0.01937
0.306235
0.559648
0.732424
0.806565
0.760252
0.575025
0.286835
0.000555708
-0.269914
-0.54718
-0.768926
-0.87459
-0.872188
-0.77366
-0.581421
-0.30899
0.0283124
0.419582
0.862569
1.36067
1.92163
2.55589
3.26337
4.03844
4.87085
5.73128
6.56757
7.32406
7.96985
8.51242
8.98093
9.40331
9.78419
10.0981
10.3287
10.4869
10.5943
10.6778
10.7701
10.8942
11.0448
11.2035
11.3586
11.5037
11.6174
11.676
11.6854
11.6388
11.5228
11.3505
11.1323
10.8866
10.6556
10.4695
10.33
-5.65106
-5.81548
-6.12696
-6.56767
-7.12186
-7.7727
-8.50327
-9.29583
-10.1314
-10.9897
-11.85
-12.6922
-13.4991
-14.2578
-14.9598
-15.5996
-16.1737
-16.6811
-17.1234
-17.5033
-17.825
-18.0943
-18.3184
-18.5049
-18.6625
-18.8022
-18.935
-19.0702
-19.2176
-19.3901
-19.601
-19.863
-20.1873
-20.5832
-21.0532
-21.5922
-22.1906
-22.8368
-23.5187
-24.2267
-24.9475
-25.6619
-26.3566
-27.023
-27.6517
-28.2324
-28.7521
-29.1994
-29.5709
-29.8709
-30.0915
-30.2101
-30.2224
-30.1429
-29.9892
-29.782
-29.5457
-29.3017
-29.0677
-28.8586
-28.6808
-28.535
-28.4204
-28.3349
-28.2707
-28.2162
-28.1616
-28.1032
-28.0391
-27.9623
-27.8749
-27.7861
-27.6913
-27.5774
-27.431
-27.2464
-27.0255
-26.7712
-26.4907
-26.1986
-25.916
-25.6619
-25.4402
-25.2388
-25.0426
-24.845
-24.6455
-24.4527
-24.2822
-24.1457
-24.0501
-23.9511
-23.7708
-23.4845
-23.0987
-22.6255
-22.0819
-21.4858
-20.848
-20.1697
-19.4525
-18.7056
-17.9551
-17.2218
-16.4889
-15.7587
-15.0553
-14.3742
-13.7006
-13.0149
-12.2885
-11.4975
-10.6324
-9.70008
-8.71456
-7.69549
-6.67312
-5.68347
-4.75825
-3.91149
-3.14164
-2.44952
-1.84483
-1.33325
-0.907372
-0.554922
-0.272635
-0.072517
0.0232123
-0.0122791
-0.186672
-0.458695
-0.732539
-0.987981
-1.25161
-1.46897
-1.5734
-1.57008
-1.47519
-1.29148
-1.0342
-0.719323
-0.353795
0.0659313
0.549641
1.1056
1.74101
2.45185
3.22845
4.05749
4.90856
5.73191
6.47629
7.11425
7.65451
8.1231
8.54168
8.91651
9.22977
9.46815
9.63991
9.76278
9.86051
9.96416
10.0967
10.2536
10.4183
10.5805
10.7347
10.8606
10.9303
10.9474
10.912
10.8131
10.6611
10.4654
10.2397
10.0229
9.8467
9.71265
-5.35161
-5.52862
-5.86193
-6.33421
-6.93011
-7.63113
-8.41864
-9.27324
-10.1739
-11.0987
-12.0254
-12.9328
-13.8024
-14.6202
-15.377
-16.0668
-16.6851
-17.2294
-17.7009
-18.104
-18.4458
-18.7344
-18.9766
-19.1789
-19.3495
-19.4997
-19.6413
-19.7836
-19.9355
-20.1072
-20.3079
-20.5479
-20.8382
-21.1905
-21.6124
-22.1048
-22.663
-23.2766
-23.9317
-24.6175
-25.3243
-26.0341
-26.7288
-27.3968
-28.0283
-28.6152
-29.1482
-29.6178
-30.019
-30.3524
-30.6078
-30.7575
-30.7908
-30.723
-30.5773
-30.3797
-30.1573
-29.9309
-29.7164
-29.5259
-29.3636
-29.2285
-29.1194
-29.0352
-28.9709
-28.9172
-28.8647
-28.807
-28.7393
-28.6551
-28.5589
-28.4622
-28.3616
-28.245
-28.0962
-27.9041
-27.6684
-27.3944
-27.0916
-26.7761
-26.471
-26.198
-25.9611
-25.7476
-25.5442
-25.3488
-25.1649
-24.9982
-24.8576
-24.7424
-24.6495
-24.5454
-24.3606
-24.0684
-23.6794
-23.2097
-22.6772
-22.0963
-21.4772
-20.8225
-20.1317
-19.4094
-18.6745
-17.9464
-17.2149
-16.4858
-15.784
-15.1044
-14.4304
-13.7404
-13.0057
-12.2044
-11.331
-10.3957
-9.41412
-8.40704
-7.40521
-6.44413
-5.55269
-4.73942
-3.99417
-3.31092
-2.69873
-2.16711
-1.71363
-1.32969
-1.01417
-0.781384
-0.654661
-0.665593
-0.814579
-1.05967
-1.3154
-1.55047
-1.79689
-2.011
-2.12011
-2.1225
-2.03831
-1.86982
-1.63181
-1.34203
-1.00455
-0.610141
-0.143046
0.405396
1.03804
1.74634
2.51726
3.33521
4.16988
4.97494
5.70354
6.3305
6.86392
7.3258
7.73256
8.09331
8.39928
8.64054
8.82201
8.95673
9.06549
9.17788
9.31629
9.4781
9.64917
9.82014
9.98441
10.1222
10.2044
10.2317
10.2097
10.1302
9.99931
9.82518
9.61844
9.41518
9.24952
9.1221
-4.84917
-5.03767
-5.39143
-5.89531
-6.53251
-7.28281
-8.127
-9.04566
-10.0173
-11.0171
-12.0191
-12.9976
-13.9285
-14.7937
-15.5831
-16.2925
-16.9208
-17.4699
-17.9454
-18.3552
-18.7079
-19.0105
-19.2685
-19.4872
-19.6745
-19.8413
-19.9982
-20.1528
-20.3119
-20.4825
-20.6706
-20.884
-21.1338
-21.433
-21.7932
-22.2215
-22.7201
-23.2826
-23.8938
-24.5387
-25.209
-25.8911
-26.5672
-27.2254
-27.8558
-28.4507
-29.003
-29.5033
-29.9432
-30.3189
-30.6196
-30.8176
-30.8979
-30.8714
-30.7611
-30.597
-30.4109
-30.2242
-30.0506
-29.8991
-29.7727
-29.6688
-29.5846
-29.5193
-29.4697
-29.4291
-29.3886
-29.3399
-29.2768
-29.1942
-29.0989
-29.0024
-28.904
-28.7953
-28.6578
-28.4718
-28.2319
-27.9455
-27.6255
-27.2903
-26.9642
-26.6694
-26.4125
-26.1839
-25.9729
-25.7787
-25.6047
-25.4524
-25.3245
-25.2142
-25.1088
-24.982
-24.7786
-24.4709
-24.07
-23.5929
-23.0582
-22.4816
-21.8751
-21.2438
-20.5842
-19.8941
-19.185
-18.4717
-17.7498
-17.0289
-16.3349
-15.6627
-14.9927
-14.3007
-13.5581
-12.7467
-11.8663
-10.9322
-9.96242
-8.97836
-8.01033
-7.09134
-6.24532
-5.47395
-4.75896
-4.08869
-3.47124
-2.91879
-2.43481