/*--------------------------------*- C++ -*----------------------------------*\
  =========                 |
  \\      /  F ield         | OpenFOAM: The Open Source CFD Toolbox
   \\    /   O peration     | Website:  https://openfoam.org
    \\  /    A nd           | Version:  6
     \\/     M anipulation  |
\*---------------------------------------------------------------------------*/
FoamFile
{
    version     2.0;
    format      ascii;
    class       volScalarField;
    location    "0.3";
    object      s;
}
// * * * * * * * * * * * * * * * * * * * * * * * * * * * * * * * * * * * * * //

dimensions      [0 0 0 0 0 0 0];

internalField   nonuniform List<scalar> 
12225
(
1
1
1
1
1
1
1
1
1
1
1
1
1
1
1
1
1
1
1
1
1
1
1
1
1
1
1
1
1
1
1
1
1
1
1
1
1
1
1
1
1
1
1
1
1
1
1
1
1
1
1
1
1
1
1
1
1
1
1
1
1
1
1
1
1
1
1
1
1
1
1
1
1
1
1
1
1
1
1
1
1
1
1
1
1
1
1
1
1
1
1
1
1
1
1
1
1
1
1
1
1
1
1
1
1
1
1
1
1
1
1
1
1
1
1
1
1
1
1
1
1
1
1
1
1
1
1
1
1
1
1
1
1
1
1
1
1
1
1
1
1
1
1
1
1
1
1
1
1
1
1
1
1
1
1
1
1
1
1
1
1
1
1
1
1
1
1
1
1
1
1
1
1
1
1
1
1
1
1
1
1
1
1
1
1
1
1
1
1
1
1
1
1
1
1
1
1
1
1
1
1
1
1
1
1
1
1
1
1
1
1
1
1
1
1
1
1
1
1
1
1
1
1
1
1
1
1
1
1
1
1
1
1
1
1
1
1
1
1
1
1
1
1
1
1
1
1
1
1
1
1
1
1
1
1
1
1
1
1
1
1
1
1
1
1
1
1
1
1
1
1
1
1
1
1
1
1
1
1
1
1
1
1
1
1
1
1
1
1
1
1
1
1
1
1
1
1
1
1
1
1
1
1
1
1
1
1
1
1
1
1
1
1
1
1
1
1
1
1
1
1
1
1
1
1
1
1
1
1
1
1
1
1
1
1
1
1
1
1
1
1
1
1
1
1
1
1
1
1
1
1
1
1
1
1
1
1
1
1
1
1
1
1
1
1
1
1
1
1
1
1
1
1
1
1
1
1
1
1
1
1
1
1
1
1
1
1
1
1
1
1
1
1
1
1
1
1
1
1
1
1
1
1
1
1
1
1
1
1
1
1
1
1
1
1
1
1
1
1
1
1
1
1
1
1
1
1
1
1
1
1
1
1
1
1
1
1
1
1
1
1
1
1
1
1
1
1
1
1
1
1
1
1
1
1
1
1
1
1
1
1
1
1
1
1
1
1
1
1
1
1
1
1
1
1
1
1
1
1
1
1
1
1
1
1
1
1
1
1
1
1
1
1
1
1
1
1
1
1
1
1
1
1
1
1
1
1
1
1
1
1
1
1
1
1
1
1
1
1
1
1
1
1
1
1
1
1
1
1
1
1
1
1
1
1
1
1
1
1
1
0.993179
0.993397
0.992903
0.992739
0.992653
0.992602
0.992593
0.992599
0.992717
0.992834
0.992864
0.992868
0.992859
0.992818
0.992742
0.992651
0.992563
0.992466
0.992355
0.992244
0.992138
0.992045
0.991969
0.991921
0.991906
0.991904
0.991909
0.991929
0.991967
0.992013
0.992048
0.992079
0.992112
0.992136
0.992146
0.992152
0.992155
0.992144
0.992132
0.992102
0.992058
0.991999
0.991952
0.991913
0.991875
0.991813
0.991695
0.991549
0.991416
0.991336
0.991341
0.991569
0.992118
0.992085
0.991539
0.991337
0.991379
0.991569
0.991855
0.992305
0.992972
0.993606
0.994161
0.99472
0.995278
0.995689
0.995837
0.995819
0.995683
0.995296
0.993625
0.99254
0.992988
0.994175
0.996134
0.998145
0.999071
0.999181
0.999191
0.999203
0.999212
0.999219
0.999226
0.999232
0.999239
0.999245
0.999251
0.999258
0.999264
0.999269
0.999275
0.999281
0.999286
0.999291
0.999296
0.9993
0.999303
0.999307
0.999308
0.999308
0.999308
0.999307
0.999306
0.999306
0.999308
0.999314
0.999323
0.99933
0.999336
0.999345
0.999354
0.999359
0.999365
0.999369
0.999371
0.999371
0.999364
0.999353
0.999338
0.999321
0.999306
0.999294
0.999281
0.999254
0.999188
0.999009
0.998819
0.99874
0.998707
0.998664
0.998667
0.998764
0.998796
0.998747
0.998482
0.997524
0.996988
0.996918
0.996961
0.997079
0.997298
0.997629
0.997947
0.998186
0.998316
0.998375
0.998395
0.9984
0.9984
0.998394
0.998377
0.998354
0.998331
0.998302
0.998273
0.998261
0.998259
0.998276
0.998313
0.998364
0.998428
0.998502
0.99858
0.998655
0.998717
0.998767
0.99881
0.998843
0.998863
0.99887
0.998864
0.998831
0.998767
0.998698
0.998599
0.998473
0.998381
0.99836
0.998374
0.998426
0.993086
0.993392
0.992666
0.992064
0.991765
0.99166
0.991734
0.991779
0.991762
0.991751
0.991764
0.991817
0.991841
0.991818
0.991708
0.991517
0.991376
0.991346
0.991355
0.991431
0.991601
0.991838
0.992088
0.992337
0.992651
0.993034
0.993445
0.993844
0.994189
0.994467
0.994679
0.994829
0.994942
0.994999
0.995022
0.995024
0.995007
0.994913
0.994821
0.994675
0.994505
0.994325
0.994177
0.994044
0.993898
0.993655
0.993245
0.992728
0.992073
0.991299
0.990772
0.990713
0.990972
0.991499
0.991726
0.991843
0.991798
0.991715
0.991764
0.991842
0.991815
0.991803
0.992065
0.992938
0.994433
0.995708
0.996413
0.996705
0.996688
0.996384
0.994966
0.993044
0.992429
0.992906
0.996863
0.999
0.999143
0.999156
0.999141
0.999132
0.999128
0.999128
0.999141
0.99916
0.999177
0.999203
0.999222
0.999239
0.999251
0.999254
0.999256
0.999256
0.999255
0.999251
0.99924
0.999226
0.99921
0.99919
0.999167
0.999155
0.999152
0.999154
0.999168
0.999187
0.9992
0.999209
0.999221
0.99923
0.999235
0.999248
0.999266
0.99929
0.999322
0.999361
0.999403
0.999452
0.999507
0.999566
0.999623
0.99967
0.999704
0.999734
0.999759
0.999779
0.999791
0.999795
0.999787
0.999754
0.999706
0.999652
0.999635
0.999646
0.999648
0.999587
0.999376
0.998814
0.997756
0.997237
0.997183
0.997241
0.997293
0.99743
0.997867
0.99818
0.998273
0.998236
0.998171
0.998055
0.997923
0.99775
0.997592
0.997466
0.997394
0.997359
0.997348
0.997358
0.99738
0.997418
0.997463
0.997505
0.99755
0.997604
0.997678
0.997778
0.997915
0.99808
0.998264
0.998463
0.998677
0.998888
0.999076
0.999214
0.999317
0.999391
0.999432
0.999442
0.999422
0.999275
0.999176
0.999024
0.992615
0.993312
0.992306
0.99101
0.990875
0.991705
0.991975
0.991946
0.991862
0.991795
0.991673
0.99144
0.991389
0.991416
0.991457
0.991481
0.991541
0.991793
0.992257
0.992967
0.994
0.995232
0.996039
0.996828
0.997537
0.997881
0.998224
0.998456
0.998574
0.998669
0.998718
0.998743
0.998752
0.998723
0.998673
0.998593
0.998485
0.998332
0.998151
0.997924
0.997667
0.997384
0.997072
0.996742
0.996408
0.996067
0.99571
0.995357
0.99497
0.994271
0.992876
0.991342
0.990595
0.990524
0.990742
0.991362
0.991663
0.99178
0.991804
0.991776
0.991499
0.991111
0.991047
0.991201
0.992063
0.994535
0.996039
0.996679
0.996853
0.996798
0.996108
0.993615
0.992887
0.995283
0.998807
0.999069
0.999087
0.998975
0.998821
0.998727
0.998677
0.998655
0.99865
0.998664
0.998673
0.998705
0.998734
0.998764
0.998785
0.998819
0.998835
0.998848
0.99886
0.998863
0.998866
0.998872
0.998883
0.998905
0.99894
0.999
0.999076
0.999173
0.999261
0.999307
0.999327
0.999334
0.999335
0.999315
0.999279
0.99924
0.999195
0.999152
0.999127
0.999112
0.999105
0.999108
0.999122
0.999146
0.999189
0.999256
0.999347
0.999448
0.999558
0.999662
0.999739
0.999789
0.999818
0.999833
0.999837
0.999834
0.999827
0.999826
0.999822
0.999807
0.999757
0.999626
0.999239
0.998289
0.997904
0.997772
0.99768
0.997696
0.997941
0.998145
0.998089
0.997993
0.997825
0.997612
0.997369
0.99722
0.997146
0.997116
0.99711
0.997139
0.997181
0.997216
0.997269
0.997324
0.997375
0.997417
0.997441
0.997453
0.997463
0.997478
0.997501
0.997539
0.997597
0.99767
0.997758
0.997869
0.998051
0.998317
0.998624
0.998929
0.99918
0.999378
0.999522
0.999599
0.999614
0.999574
0.99092
0.99245
0.9914
0.990413
0.990911
0.991802
0.992046
0.991965
0.991773
0.991577
0.991449
0.991432
0.991475
0.991663
0.991973
0.992522
0.993501
0.995065
0.996355
0.997499
0.99832
0.998717
0.999105
0.999294
0.999485
0.99957
0.99964
0.999693
0.999719
0.99974
0.99975
0.999754
0.999753
0.999742
0.999722
0.99969
0.999642
0.999574
0.999477
0.999339
0.999141
0.998882
0.998558
0.998166
0.99771
0.997228
0.9968
0.996385
0.99603
0.995697
0.995279
0.994406
0.992548
0.990934
0.990353
0.990368
0.990723
0.991381
0.991676
0.991716
0.991627
0.991214
0.990992
0.991044
0.99149
0.993571
0.995817
0.996517
0.996759
0.99674
0.995961
0.993561
0.994034
0.998038
0.998973
0.998993
0.998735
0.998511
0.99842
0.998392
0.998388
0.998408
0.998428
0.998455
0.998493
0.998522
0.998544
0.998585
0.998615
0.998638
0.99867
0.998703
0.998735
0.998777
0.998826
0.998887
0.998963
0.999079
0.999258
0.999493
0.999602
0.999633
0.99964
0.999642
0.999644
0.999648
0.999657
0.999668
0.999676
0.999682
0.999678
0.999641
0.999572
0.99948
0.999377
0.999275
0.999187
0.999132
0.999108
0.999099
0.999112
0.999145
0.999198
0.999292
0.999437
0.999595
0.999718
0.999794
0.999836
0.999852
0.999858
0.99986
0.999858
0.999845
0.999785
0.999696
0.999542
0.999136
0.998593
0.998071
0.997809
0.997805
0.997973
0.998015
0.997924
0.997782
0.997511
0.997239
0.997084
0.997025
0.997011
0.997037
0.997073
0.997107
0.99715
0.997203
0.99728
0.99737
0.997462
0.997563
0.997619
0.997632
0.997595
0.997538
0.997499
0.997486
0.997493
0.99752
0.997565
0.997616
0.997657
0.997705
0.997792
0.997972
0.998275
0.99865
0.99902
0.999335
0.999555
0.999632
0.989347
0.990422
0.990336
0.99043
0.991497
0.992023
0.992116
0.991812
0.991636
0.99157
0.991561
0.991772
0.992246
0.993151
0.994669
0.996362
0.997605
0.998483
0.998969
0.999398
0.999591
0.999729
0.999808
0.999852
0.999883
0.999899
0.999909
0.999914
0.999917
0.999921
0.999925
0.999932
0.999937
0.999943
0.999949
0.999952
0.999953
0.999949
0.999939
0.999923
0.999895
0.999851
0.999782
0.999668
0.999477
0.999143
0.998561
0.997776
0.996952
0.996355
0.99596
0.995653
0.995283
0.994374
0.992168
0.99065
0.990309
0.990374
0.990821
0.991388
0.991496
0.991436
0.991277
0.991271
0.991493
0.993229
0.995779
0.996459
0.996563
0.996518
0.995198
0.993805
0.996662
0.998757
0.998931
0.998654
0.998378
0.998309
0.998307
0.998344
0.998379
0.998417
0.998446
0.998478
0.998512
0.998541
0.998565
0.998606
0.99864
0.99867
0.998707
0.99875
0.998799
0.998871
0.998974
0.99914
0.999418
0.999626
0.999695
0.999713
0.99971
0.999665
0.999599
0.999574
0.999565
0.999567
0.999589
0.999629
0.999669
0.999714
0.999765
0.999805
0.999827
0.999838
0.99984
0.999814
0.999758
0.999657
0.999523
0.999384
0.99926
0.999189
0.999172
0.999189
0.999249
0.999339
0.999471
0.999634
0.999768
0.999835
0.999861
0.99987
0.99987
0.999864
0.999827
0.999666
0.999505
0.99926
0.99874
0.998149
0.997851
0.997839
0.997931
0.997908
0.997804
0.997545
0.997226
0.997037
0.996973
0.99696
0.996995
0.997031
0.997066
0.997094
0.997125
0.997192
0.9973
0.997457
0.997636
0.997772
0.997934
0.998063
0.998105
0.998002
0.997817
0.997655
0.997544
0.997496
0.997491
0.997512
0.997554
0.997583
0.9976
0.997629
0.997697
0.997875
0.998297
0.998757
0.999192
0.999485
0.989286
0.989939
0.990444
0.991104
0.992316
0.992278
0.991962
0.991809
0.991752
0.991859
0.992325
0.99334
0.99519
0.996789
0.998096
0.998763
0.999326
0.999586
0.999752
0.999832
0.999869
0.999886
0.999892
0.999894
0.99989
0.999883
0.999876
0.999865
0.999858
0.999856
0.999867
0.999885
0.999903
0.999923
0.999946
0.999961
0.999973
0.999981
0.999985
0.999987
0.999988
0.999986
0.999979
0.999965
0.999938
0.999885
0.999773
0.999521
0.998884
0.997713
0.996669
0.996091
0.995828
0.995631
0.995254
0.993877
0.991538
0.990519
0.990367
0.990463
0.990917
0.991179
0.991213
0.991253
0.9915
0.993388
0.996074
0.996564
0.996327
0.99572
0.994552
0.995242
0.998226
0.998804
0.998734
0.998341
0.998252
0.998287
0.998344
0.998464
0.9986
0.998683
0.99875
0.998784
0.998795
0.998795
0.998795
0.998812
0.998834
0.998865
0.998915
0.998996
0.999111
0.999254
0.999449
0.999646
0.99972
0.999741
0.999727
0.999652
0.999518
0.999412
0.999376
0.99935
0.999322
0.99931
0.999308
0.999325
0.999355
0.999419
0.999522
0.999664
0.999756
0.999831
0.999876
0.999902
0.999915
0.999921
0.999913
0.999881
0.999811
0.999684
0.999529
0.999394
0.999322
0.999323
0.999382
0.999488
0.999629
0.999768
0.999843
0.999874
0.999882
0.999879
0.999852
0.999695
0.999393
0.999167
0.998683
0.998118
0.997844
0.997835
0.997873
0.997838
0.997675
0.997319
0.99705
0.996949
0.996929
0.996956
0.996998
0.997026
0.997039
0.997043
0.997054
0.997129
0.997279
0.997482
0.997739
0.997954
0.998098
0.998268
0.998453
0.998586
0.998561
0.99834
0.998012
0.997725
0.997545
0.997467
0.997444
0.997444
0.997463
0.997482
0.997507
0.997563
0.997731
0.998181
0.998693
0.999173
0.990455
0.990295
0.991421
0.99235
0.992443
0.992169
0.992035
0.992016
0.992313
0.993108
0.994905
0.996754
0.997998
0.998872
0.99937
0.999618
0.999759
0.999815
0.999838
0.999844
0.999844
0.999816
0.999774
0.999714
0.999644
0.999568
0.999503
0.999467
0.999453
0.999451
0.999493
0.999553
0.999625
0.999703
0.999785
0.999857
0.999913
0.999952
0.999975
0.999987
0.999992
0.999995
0.999996
0.999997
0.999995
0.999989
0.999975
0.999936
0.999823
0.999461
0.998298
0.996868
0.996157
0.995914
0.995788
0.995567
0.994837
0.992509
0.990892
0.990397
0.990363
0.990511
0.990813
0.990957
0.991521
0.994533
0.996703
0.996748
0.995987
0.995234
0.994883
0.997431
0.998628
0.99874
0.998358
0.998222
0.99825
0.998368
0.998634
0.998983
0.999198
0.999343
0.999412
0.999439
0.999448
0.999447
0.999435
0.999419
0.999411
0.999412
0.99943
0.999476
0.99955
0.999652
0.999737
0.999764
0.999765
0.999715
0.999617
0.999444
0.999381
0.999361
0.999349
0.999321
0.999275
0.999229
0.999212
0.999208
0.999208
0.999202
0.999191
0.999225
0.99937
0.999563
0.99971
0.999812
0.999881
0.999923
0.999946
0.999957
0.99996
0.999952
0.999925
0.999864
0.99975
0.999607
0.999511
0.999503
0.99957
0.999686
0.999793
0.99986
0.999885
0.999887
0.999873
0.99979
0.999423
0.998952
0.998472
0.998017
0.997819
0.997811
0.997819
0.997772
0.997535
0.997153
0.996953
0.996905
0.996915
0.996956
0.996988
0.996994
0.996956
0.996927
0.996929
0.997033
0.997207
0.997457
0.99776
0.99806
0.998346
0.998503
0.998608
0.998805
0.998953
0.99897
0.998881
0.998543
0.998056
0.997692
0.997487
0.997395
0.997358
0.997347
0.997351
0.997381
0.997493
0.997852
0.998317
0.99882
0.991478
0.991709
0.992477
0.992558
0.992413
0.992284
0.992356
0.992818
0.994099
0.996009
0.997657
0.998606
0.999259
0.999568
0.99971
0.999766
0.999786
0.999791
0.999757
0.999679
0.999545
0.999346
0.999196
0.999036
0.998941
0.998868
0.998834
0.99882
0.998817
0.998833
0.998856
0.998906
0.998981
0.999116
0.999289
0.999496
0.999672
0.999814
0.999899
0.999951
0.999977
0.99999
0.999996
0.999998
0.999999
0.999999
0.999998
0.999994
0.999978
0.999915
0.999653
0.998474
0.996876
0.996178
0.995971
0.995875
0.99568
0.994952
0.992563
0.990886
0.990311
0.990238
0.990287
0.990509
0.991993
0.996166
0.997303
0.996823
0.995813
0.995414
0.996745
0.99833
0.998643
0.998499
0.99823
0.998199
0.998329
0.998708
0.999091
0.999272
0.999411
0.999598
0.999682
0.999711
0.999724
0.999731
0.999738
0.999744
0.999745
0.999744
0.999744
0.999753
0.999778
0.999801
0.999808
0.999791
0.999734
0.999619
0.999445
0.999392
0.999376
0.999371
0.999359
0.999323
0.999267
0.999186
0.99915
0.999143
0.999143
0.999132
0.999076
0.99902
0.999013
0.999094
0.999296
0.999494
0.999656
0.999787
0.999879
0.999934
0.999962
0.999974
0.999978
0.999977
0.999967
0.999936
0.999863
0.999751
0.999677
0.999682
0.999757
0.999837
0.999881
0.99989
0.999885
0.999841
0.999625
0.998911
0.998245
0.997872
0.997766
0.99777
0.997774
0.997713
0.997406
0.997042
0.996902
0.996881
0.99691
0.996946
0.996956
0.996909
0.996843
0.996828
0.996862
0.99696
0.997087
0.997324
0.997696
0.998053
0.998393
0.998702
0.9989
0.99898
0.99913
0.99922
0.999227
0.999182
0.998998
0.99847
0.997925
0.99758
0.997407
0.997341
0.997326
0.997333
0.997382
0.997591
0.998079
0.998587
0.992198
0.992534
0.992657
0.992601
0.992527
0.992645
0.993269
0.994873
0.996613
0.998073
0.998952
0.999395
0.999617
0.999701
0.999729
0.999736
0.999685
0.999555
0.999303
0.999087
0.998884
0.998788
0.998709
0.998673
0.998656
0.998651
0.998653
0.998668
0.998675
0.998686
0.998691
0.998698
0.998703
0.998711
0.998751
0.998846
0.999081
0.999399
0.999666
0.999836
0.999921
0.999965
0.999986
0.999995
0.999998
0.999999
1
0.999999
0.999998
0.999988
0.999937
0.999656
0.998196
0.996729
0.996166
0.996013
0.995892
0.995545
0.994027
0.991604
0.990441
0.990125
0.990127
0.990563
0.993826
0.997368
0.997722
0.996838
0.996092
0.996729
0.998049
0.998534
0.998578
0.998241
0.998154
0.998244
0.998595
0.99904
0.999223
0.999312
0.99944
0.999621
0.999737
0.999781
0.999801
0.999813
0.999826
0.999848
0.99986
0.999861
0.99986
0.999857
0.999855
0.999846
0.999818
0.999772
0.999662
0.999481
0.99941
0.999394
0.999392
0.999392
0.999379
0.99934
0.999263
0.999128
0.999029
0.99901
0.999021
0.999034
0.999005
0.998899
0.998862
0.998841
0.998865
0.999036
0.999238
0.999456
0.999653
0.9998
0.999894
0.999947
0.999974
0.999984
0.999988
0.999988
0.999983
0.999962
0.999904
0.999821
0.999799
0.99983
0.999879
0.999894
0.999893
0.999869
0.999731
0.999091
0.998215
0.997797
0.997712
0.997731
0.99774
0.997664
0.997303
0.996973
0.996873
0.996868
0.996899
0.996916
0.996869
0.996788
0.996761
0.99678
0.996843
0.996916
0.99702
0.997196
0.997522
0.997952
0.998356
0.998715
0.999015
0.999232
0.999347
0.999401
0.999409
0.999404
0.999375
0.999257
0.998847
0.998196
0.997745
0.997501
0.997397
0.997372
0.997383
0.997474
0.997826
0.998405
0.992616
0.992894
0.992793
0.992735
0.992861
0.993595
0.99525
0.996901
0.998155
0.999048
0.999439
0.999608
0.99967
0.999686
0.999664
0.99954
0.999246
0.998995
0.998812
0.998723
0.998672
0.998654
0.998649
0.998655
0.998669
0.998689
0.998713
0.998725
0.998737
0.998744
0.998746
0.998738
0.998717
0.998684
0.99866
0.998651
0.998667
0.998771
0.999099
0.999534
0.999774
0.999896
0.999957
0.999984
0.999995
0.999998
1
1
1
0.999998
0.999989
0.999928
0.999504
0.997747
0.996562
0.996162
0.99601
0.99573
0.994676
0.99206
0.990522
0.990061
0.990105
0.99128
0.99599
0.998103
0.998011
0.997284
0.997228
0.997981
0.998437
0.998535
0.998338
0.998146
0.998157
0.998405
0.998918
0.999141
0.999232
0.999301
0.999414
0.999574
0.999717
0.999781
0.999809
0.999824
0.999839
0.999861
0.999879
0.999882
0.999882
0.999879
0.999869
0.999847
0.999807
0.999724
0.999556
0.999437
0.999407
0.999402
0.999404
0.999404
0.999392
0.999354
0.999264
0.999091
0.998902
0.998841
0.998836
0.998842
0.998811
0.998711
0.998662
0.99867
0.998662
0.998653
0.998774
0.998981
0.999253
0.999516
0.999712
0.999844
0.999923
0.999966
0.999985
0.999992
0.999994
0.999994
0.999987
0.999961
0.999909
0.999887
0.999891
0.999902
0.999902
0.999887
0.999792
0.999294
0.998282
0.997773
0.997668
0.997696
0.997711
0.99762
0.997224
0.99693
0.996853
0.996853
0.996876
0.996856
0.996752
0.996694
0.996692
0.996754
0.996813
0.996858
0.996929
0.997074
0.997356
0.997777
0.998232
0.998662
0.999014
0.999285
0.999491
0.999608
0.999618
0.999584
0.999553
0.999518
0.999426
0.999116
0.998461
0.99796
0.997671
0.99754
0.997508
0.997527
0.997684
0.998205
0.992766
0.992996
0.992936
0.992993
0.993612
0.995158
0.996879
0.998104
0.998981
0.999411
0.999577
0.999634
0.99965
0.999602
0.999422
0.999047
0.998848
0.998734
0.998679
0.998661
0.998658
0.998668
0.998696
0.998715
0.998737
0.998751
0.998757
0.998762
0.998771
0.998788
0.998805
0.998826
0.998836
0.998834
0.998773
0.998677
0.99862
0.998602
0.998659
0.998912
0.999452
0.999742
0.99989
0.999958
0.999985
0.999995
0.999999
1
1
1
0.999998
0.999986
0.999888
0.999159
0.997337
0.996443
0.99615
0.995853
0.994973
0.992349
0.990546
0.990051
0.990222
0.992778
0.997328
0.998463
0.998262
0.997969
0.998091
0.998403
0.998531
0.99847
0.998168
0.998104
0.998218
0.998692
0.99905
0.99917
0.999222
0.999261
0.999332
0.999439
0.999587
0.999733
0.999789
0.999812
0.999827
0.999846
0.999868
0.999876
0.999877
0.999875
0.999865
0.999836
0.999774
0.999644
0.999484
0.999424
0.999409
0.999408
0.999409
0.999408
0.999398
0.99936
0.999259
0.999056
0.998831
0.99873
0.998712
0.998718
0.998715
0.998648
0.998506
0.998425
0.998411
0.998418
0.998417
0.998492
0.998721
0.999077
0.999392
0.999633
0.999799
0.999902
0.999957
0.999983
0.999993
0.999996
0.999997
0.999994
0.999981
0.999958
0.999937
0.999926
0.999919
0.999904
0.999834
0.99947
0.998421
0.997788
0.997638
0.997662
0.997684
0.997592
0.997188
0.996908
0.996838
0.996835
0.99683
0.996716
0.996618
0.996619
0.996653
0.99669
0.99673
0.996747
0.99676
0.996869
0.997157
0.997567
0.998061
0.998548
0.998967
0.99928
0.999508
0.999669
0.999762
0.999781
0.999746
0.999688
0.999638
0.999544
0.999273
0.998671
0.998185
0.997888
0.997754
0.997729
0.997771
0.99805
0.992889
0.993164
0.993134
0.993566
0.994675
0.996359
0.997955
0.998783
0.999309
0.999527
0.9996
0.999619
0.99958
0.999375
0.998994
0.998797
0.998707
0.998669
0.998658
0.998662
0.998678
0.998695
0.998701
0.998704
0.998696
0.998679
0.99867
0.998667
0.998667
0.998678
0.998707
0.998762
0.998831
0.998868
0.998881
0.998856
0.99873
0.998598
0.998571
0.998627
0.99892
0.999472
0.999768
0.999908
0.999967
0.999989
0.999997
0.999999
1
1
1
0.999998
0.999977
0.999806
0.998621
0.996991
0.996368
0.996027
0.995257
0.992744
0.99063
0.990075
0.990447
0.993905
0.997912
0.998653
0.998508
0.998379
0.998465
0.998566
0.99853
0.998279
0.99806
0.998049
0.998251
0.99877
0.999078
0.999172
0.999214
0.999241
0.999277
0.999322
0.999395
0.999528
0.999685
0.999743
0.99976
0.999768
0.999792
0.999826
0.999838
0.999841
0.999834
0.999797
0.999702
0.999571
0.999458
0.999421
0.999412
0.999411
0.999411
0.99941
0.9994
0.999358
0.999223
0.998966
0.998721
0.998641
0.998637
0.998666
0.998685
0.998661
0.99851
0.998375
0.998285
0.998232
0.998205
0.998201
0.998262
0.998508
0.998921
0.999286
0.999572
0.999769
0.999889
0.999952
0.999982
0.999994
0.999997
0.999998
0.999996
0.999991
0.999978
0.999959
0.999946
0.999927
0.999866
0.999589
0.998602
0.997829
0.997621
0.997632
0.997654
0.997564
0.997155
0.996888
0.996826
0.996806
0.996716
0.996534
0.99648
0.996545
0.996574
0.996564
0.99655
0.996533
0.996511
0.996592
0.996848
0.997286
0.997837
0.998395
0.998879
0.999248
0.999504
0.999679
0.999796
0.999862
0.999876
0.999861
0.999808
0.999737
0.999603
0.999257
0.998761
0.998354
0.998104
0.998008
0.998006
0.998101
0.992974
0.993349
0.993521
0.994016
0.995455
0.997188
0.998481
0.999101
0.999435
0.999561
0.999593
0.999585
0.999435
0.999062
0.99881
0.998707
0.998666
0.998653
0.998658
0.998675
0.998686
0.998689
0.998678
0.998662
0.99865
0.998647
0.998646
0.998643
0.998634
0.998624
0.998617
0.998621
0.998659
0.99878
0.998875
0.998889
0.99886
0.998707
0.998567
0.99855
0.998654
0.999128
0.999606
0.999842
0.999942
0.999981
0.999994
0.999998
1
1
1
1
0.999996
0.999958
0.99964
0.997978
0.996744
0.996284
0.995607
0.993345
0.990835
0.990148
0.990557
0.994147
0.998004
0.998771
0.998693
0.998623
0.998639
0.998623
0.998468
0.998124
0.998012
0.998004
0.998235
0.998752
0.999072
0.999166
0.999205
0.999228
0.999252
0.999269
0.999284
0.999322
0.999403
0.999528
0.999626
0.999645
0.999639
0.999649
0.999687
0.99972
0.999727
0.999706
0.999627
0.999515
0.999447
0.999422
0.999413
0.999412
0.999411
0.999409
0.999395
0.999334
0.999157
0.998846
0.998643
0.998587
0.998579
0.998608
0.998659
0.998674
0.998628
0.998475
0.998312
0.998213
0.998155
0.998126
0.998125
0.998172
0.998351
0.998767
0.999203
0.999535
0.999758
0.999887
0.999954
0.999983
0.999994
0.999998
0.999998
0.999997
0.999994
0.999985
0.999974
0.999954
0.999901
0.999681
0.998794
0.997899
0.997614
0.997606
0.997621
0.997538
0.99715
0.996887
0.996818
0.996749
0.996524
0.996354
0.996364
0.996433
0.99642
0.996312
0.996228
0.996181
0.996172
0.996258
0.996494
0.996933
0.997544
0.998193
0.99876
0.999194
0.999491
0.999682
0.999805
0.999884
0.999923
0.999929
0.99992
0.999882
0.999764
0.999492
0.99913
0.99876
0.998471
0.998319
0.998286
0.998305
0.99302
0.993539
0.993761
0.994723
0.996067
0.997688
0.998793
0.999268
0.999485
0.99956
0.999578
0.999505
0.999248
0.998903
0.998738
0.998667
0.998647
0.99865
0.99867
0.998685
0.998688
0.998682
0.998671
0.998665
0.998676
0.998694
0.998703
0.9987
0.998686
0.998653
0.998617
0.998601
0.998604
0.998642
0.998784
0.998872
0.998871
0.998789
0.998584
0.998525
0.998558
0.99889
0.999464
0.999783
0.999923
0.999975
0.999992
0.999998
0.999999
1
1
1
0.999999
0.999992
0.999916
0.999248
0.997411
0.996616
0.996056
0.994349
0.991294
0.990277
0.990584
0.993954
0.997906
0.99881
0.998805
0.998755
0.998739
0.998663
0.998422
0.998011
0.997913
0.997953
0.998172
0.998669
0.999035
0.999143
0.999183
0.999201
0.999217
0.999231
0.999239
0.999244
0.999251
0.999277
0.999338
0.99944
0.999535
0.999555
0.999555
0.999556
0.999569
0.999579
0.999569
0.999505
0.999447
0.999425
0.999416
0.999413
0.999412
0.999405
0.999375
0.999276
0.999027
0.99874
0.998626
0.998578
0.998563
0.998565
0.9986
0.998656
0.998663
0.998642
0.998534
0.998348
0.998208
0.998135
0.99811
0.998112
0.998143
0.998263
0.998646
0.999156
0.999531
0.999767
0.999897
0.99996
0.999986
0.999996
0.999998
0.999998
0.999998
0.999995
0.999989
0.999975
0.999934
0.999764
0.999004
0.997997
0.997623
0.997584
0.997589
0.99752
0.997158
0.996894
0.996805
0.996618
0.99634
0.996202
0.996227
0.996241
0.996096
0.995884
0.995745
0.995704
0.995757
0.99589
0.996106
0.996525
0.99718
0.997933
0.998604
0.999118
0.999469
0.999685
0.999812
0.999892
0.999939
0.999957
0.999957
0.999944
0.999873
0.999638
0.999322
0.999017
0.99876
0.998601
0.99855
0.998544
0.993053
0.993627
0.993925
0.994825
0.996373
0.997848
0.998808
0.999275
0.999481
0.999555
0.999561
0.999487
0.999216
0.998875
0.998707
0.998646
0.998637
0.998644
0.998669
0.998689
0.998695
0.998688
0.998674
0.998671
0.998677
0.998702
0.998715
0.998715
0.99871
0.998691
0.998637
0.998601
0.998594
0.998616
0.998736
0.998851
0.998859
0.998802
0.998586
0.998485
0.998514
0.998801
0.999401
0.999755
0.999914
0.999972
0.999992
0.999998
0.999999
1
1
1
1
0.999999
0.999982
0.999816
0.998536
0.997077
0.996507
0.995477
0.992287
0.990528
0.990582
0.993254
0.997536
0.998758
0.99891
0.998867
0.998814
0.99871
0.998443
0.99801
0.997839
0.997834
0.997991
0.998423
0.998905
0.999068
0.999109
0.999111
0.999108
0.999125
0.99915
0.999169
0.999184
0.999194
0.999198
0.999209
0.999258
0.99936
0.999465
0.999495
0.999503
0.999502
0.999484
0.999472
0.999441
0.999425
0.999417
0.999414
0.999408
0.999388
0.999314
0.999125
0.998833
0.998704
0.998625
0.998581
0.998562
0.998558
0.998561
0.99859
0.998649
0.998663
0.998655
0.998607
0.998452
0.998269
0.998164
0.998123
0.998122
0.998149
0.998243
0.998596
0.999166
0.999563
0.999796
0.999915
0.999969
0.99999
0.999997
0.999999
0.999999
0.999998
0.999995
0.999987
0.999958
0.999831
0.999219
0.998122
0.997646
0.997565
0.997562
0.997505
0.997178
0.99692
0.996771
0.996471
0.996186
0.996068
0.996062
0.995991
0.995756
0.995545
0.995438
0.995411
0.995432
0.995528
0.995739
0.996116
0.996765
0.997606
0.998404
0.999016
0.99943
0.999682
0.999825
0.999901
0.999946
0.99997
0.999975
0.999972
0.999947
0.99982
0.999493
0.999192
0.998962
0.998819
0.998768
0.998757
0.993093
0.993594
0.993912
0.9947
0.996276
0.997754
0.998727
0.999232
0.999457
0.999542
0.999549
0.999498
0.999268
0.998916
0.998725
0.998648
0.998617
0.998623
0.998652
0.998681
0.998694
0.998696
0.998692
0.998691
0.998692
0.998697
0.998703
0.998703
0.9987
0.998685
0.998639
0.99859
0.998586
0.99861
0.998728
0.99885
0.998855
0.998768
0.998517
0.998458
0.998501
0.998789
0.999389
0.99975
0.999912
0.999973
0.999993
0.999998
1
1
1
1
1
1
0.999997
0.999961
0.999591
0.997905
0.996944
0.996265
0.993977
0.991104
0.990678
0.991804
0.996376
0.998521
0.998904
0.998946
0.998911
0.998811
0.998529
0.998054
0.997842
0.997753
0.997787
0.997984
0.998433
0.998788
0.998849
0.998762
0.998658
0.998654
0.998734
0.998845
0.998949
0.999027
0.999094
0.999127
0.999142
0.999145
0.999154
0.999224
0.999343
0.999437
0.999451
0.999447
0.999436
0.999424
0.99942
0.99941
0.999379
0.999299
0.999105
0.998847
0.998753
0.998695
0.998636
0.998597
0.998576
0.998565
0.998559
0.998561
0.998586
0.998643
0.998662
0.998659
0.998634
0.998543
0.998364
0.998231
0.998168
0.998154
0.99818
0.998276
0.998639
0.999238
0.999625
0.999836
0.999936
0.999978
0.999993
0.999998
0.999999
0.999999
0.999998
0.999993
0.999974
0.999886
0.999447
0.998303
0.997695
0.997556
0.99754
0.997492
0.997212
0.996964
0.996704
0.996341
0.996062
0.995953
0.995908
0.995783
0.995558
0.995416
0.995355
0.99533
0.995329
0.995359
0.995468
0.995763
0.996366
0.997244
0.998159
0.998883
0.999369
0.999663
0.999827
0.999912
0.999954
0.999976
0.999985
0.999985
0.99998
0.999942
0.99976
0.999402
0.999139
0.998987
0.998933
0.998922
0.993189
0.99345
0.993825
0.994427
0.995901
0.997459
0.99851
0.999107
0.999393
0.999514
0.999538
0.99952
0.999404
0.999057
0.998799
0.998673
0.998624
0.998602
0.998608
0.99863
0.998667
0.998683
0.998688
0.99869
0.998692
0.998694
0.998693
0.998687
0.998671
0.998624
0.998576
0.998571
0.99858
0.998637
0.998825
0.998905
0.998871
0.998663
0.998486
0.998467
0.998566
0.999004
0.99955
0.999833
0.999946
0.999984
0.999996
0.999999
1
1
1
1
1
1
1
0.999993
0.999915
0.999118
0.99752
0.996846
0.995653
0.99228
0.990914
0.99118
0.994209
0.997866
0.998804
0.998963
0.998962
0.998909
0.998725
0.998199
0.997886
0.997755
0.997694
0.997737
0.997899
0.998184
0.998298
0.998239
0.998087
0.997963
0.997925
0.997964
0.99808
0.998273
0.99853
0.99878
0.998937
0.999037
0.99908
0.999102
0.999081
0.999103
0.999177
0.999225
0.999291
0.999335
0.999321
0.999255
0.999115
0.998924
0.998798
0.998749
0.998732
0.998702
0.998671
0.998644
0.998626
0.998609
0.998586
0.998565
0.998555
0.998578
0.998632
0.998653
0.998651
0.998628
0.998556
0.99844
0.998329
0.998247
0.998219
0.998241
0.998361
0.998798
0.999371
0.99971
0.999882
0.999957
0.999986
0.999996
0.999999
0.999999
0.999999
0.999996
0.999984
0.999924
0.999619
0.998546
0.997774
0.997559
0.997526
0.997482
0.99728
0.997
0.996655
0.996248
0.995974
0.995865
0.995799
0.995646
0.99547
0.995379
0.995334
0.995308
0.995298
0.995306
0.99536
0.995529
0.996001
0.996888
0.997891
0.998732
0.999299
0.999635
0.99982
0.999915
0.99996
0.999981
0.99999
0.999993
0.999992
0.999983
0.999936
0.999722
0.999372
0.999157
0.999073
0.999054
0.993813
0.993545
0.993657
0.994002
0.995069
0.996896
0.998099
0.998859
0.999264
0.999454
0.999516
0.999516
0.999482
0.99934
0.998988
0.998767
0.998663
0.998615
0.998594
0.998591
0.998597
0.998613
0.99863
0.998646
0.998648
0.998645
0.998635
0.998614
0.998578
0.998559
0.998558
0.998567
0.998613
0.998781
0.998948
0.998943
0.998842
0.998562
0.998481
0.998534
0.99881
0.999457
0.999798
0.999928
0.999975
0.999992
0.999998
0.999999
1
1
1
1
1
1
1
0.999999
0.999983
0.999788
0.998451
0.997322
0.99656
0.99412
0.99146
0.991237
0.99232
0.996413
0.998464
0.998919
0.998992
0.998974
0.998878
0.99854
0.998019
0.997794
0.997694
0.997648
0.997671
0.997766
0.997863
0.997844
0.997752
0.997595
0.997492
0.997447
0.997449
0.997482
0.997565
0.997738
0.998003
0.998408
0.998744
0.998908
0.998985
0.998998
0.999005
0.998977
0.99892
0.998897
0.998839
0.9988
0.998772
0.998752
0.99874
0.998739
0.998743
0.998752
0.99875
0.998741
0.998736
0.998722
0.99868
0.998614
0.99856
0.998535
0.998559
0.998607
0.998627
0.998624
0.998587
0.998513
0.99846
0.998411
0.99835
0.998318
0.998349
0.998538
0.999076
0.999543
0.999802
0.999925
0.999974
0.999992
0.999998
0.999999
0.999999
0.999998
0.99999
0.999952
0.999747
0.998837
0.997893
0.997576
0.997518