/*--------------------------------*- C++ -*----------------------------------*\
  =========                 |
  \\      /  F ield         | OpenFOAM: The Open Source CFD Toolbox
   \\    /   O peration     | Website:  https://openfoam.org
    \\  /    A nd           | Version:  6
     \\/     M anipulation  |
\*---------------------------------------------------------------------------*/
FoamFile
{
    version     2.0;
    format      ascii;
    class       volVectorField;
    location    "0.3";
    object      U;
}
// * * * * * * * * * * * * * * * * * * * * * * * * * * * * * * * * * * * * * //

dimensions      [0 1 -1 0 0 0 0];

internalField   nonuniform List<vector> 
12225
(
(10.1624 0.00751671 0)
(9.62745 0.0621604 0)
(9.26362 0.0540266 0)
(8.98919 0.0484176 0)
(8.72552 0.0509053 0)
(8.42679 0.0547684 0)
(8.09402 0.0580452 0)
(7.77022 0.0568676 0)
(7.48204 0.0516041 0)
(7.2539 0.0456511 0)
(7.04982 0.0455304 0)
(6.88793 0.047217 0)
(6.68562 0.0555982 0)
(6.54669 0.0523846 0)
(6.27882 0.0641464 0)
(6.22256 0.0359206 0)
(5.85445 0.0833405 0)
(5.88457 0.0205008 0)
(9.99592 0.140105 0)
(10.0536 0.11866 0)
(10.1409 0.0582694 0)
(10.2126 0.0390729 0)
(10.2416 0.0485015 0)
(10.2226 0.0731427 0)
(10.168 0.0919527 0)
(10.0971 0.0931412 0)
(10.0217 0.0799084 0)
(9.95638 0.0659963 0)
(9.9032 0.0556154 0)
(9.87203 0.0549869 0)
(9.83963 0.0538629 0)
(9.81868 0.0658404 0)
(9.76483 0.0691476 0)
(9.71896 0.0766005 0)
(9.63446 0.104844 0)
(9.56331 0.106015 0)
(9.78486 0.135736 0)
(9.88556 0.0744974 0)
(9.97686 0.059261 0)
(10.022 0.072253 0)
(10.0559 0.0880902 0)
(10.1217 0.112018 0)
(10.2077 0.132773 0)
(10.2684 0.137181 0)
(10.2766 0.124909 0)
(10.245 0.106554 0)
(10.2061 0.0903707 0)
(10.1852 0.0834593 0)
(10.185 0.0836033 0)
(10.1961 0.0939933 0)
(10.2081 0.103732 0)
(10.2098 0.11812 0)
(10.2058 0.135634 0)
(10.2056 0.14353 0)
(9.8476 0.0596399 0)
(10.0574 0.0911777 0)
(10.0961 0.0525506 0)
(10.0845 0.034628 0)
(10.0884 0.0142494 0)
(10.1257 0.00540646 0)
(10.1839 0.0194367 0)
(10.2361 0.0461615 0)
(10.2617 0.0679416 0)
(10.2598 0.0747802 0)
(10.2422 0.0677603 0)
(10.2217 0.0573072 0)
(10.2029 0.0512749 0)
(10.1891 0.0570713 0)
(10.1821 0.0718483 0)
(10.1803 0.0896022 0)
(10.1876 0.110399 0)
(10.2094 0.126364 0)
(9.92402 0.0395814 0)
(10.0927 0.022488 0)
(10.1897 0.0112291 0)
(10.1851 0.0372806 0)
(10.1145 0.0603207 0)
(10.0437 0.0811977 0)
(10.0241 0.0985555 0)
(10.0609 0.107171 0)
(10.1207 0.106458 0)
(10.1655 0.100591 0)
(10.176 0.0938902 0)
(10.1582 0.0896547 0)
(10.1302 0.0879055 0)
(10.1135 0.0900892 0)
(10.1198 0.0947687 0)
(10.1501 0.099286 0)
(10.1987 0.107951 0)
(10.2564 0.11231 0)
(10.0686 -0.034257 0)
(10.0213 0.00714931 0)
(9.90075 0.0473649 0)
(9.90182 0.0577669 0)
(10.0035 0.0480638 0)
(10.1283 0.0374181 0)
(10.2138 0.0382449 0)
(10.2393 0.0515213 0)
(10.2137 0.0704968 0)
(10.1593 0.0874149 0)
(10.0987 0.0963695 0)
(10.0478 0.0962494 0)
(10.0134 0.0891199 0)
(9.99799 0.0809212 0)
(10.0006 0.0758058 0)
(10.0196 0.0746448 0)
(10.0463 0.0778341 0)
(10.0799 0.0803358 0)
(10.0698 0.0614838 0)
(10.0279 0.0901482 0)
(10.0634 0.0853214 0)
(10.1049 0.0513497 0)
(10.1342 0.0167079 0)
(10.1368 0.00484228 0)
(10.1226 0.0231965 0)
(10.1124 0.0584332 0)
(10.1139 0.0916365 0)
(10.1211 0.112001 0)
(10.1243 0.117424 0)
(10.1168 0.110981 0)
(10.0992 0.0970028 0)
(10.0775 0.0813861 0)
(10.06 0.0679662 0)
(10.0504 0.0590742 0)
(10.0501 0.0548854 0)
(10.0562 0.0560118 0)
(10.0013 -0.0252883 0)
(10.1539 0.00528731 0)
(10.1981 -0.00434166 0)
(10.1243 -0.00792827 0)
(10.0372 0.0143009 0)
(9.97524 0.0462458 0)
(9.94133 0.0721114 0)
(9.92956 0.0868028 0)
(9.93194 0.092798 0)
(9.94161 0.0965024 0)
(9.95482 0.101584 0)
(9.97042 0.106626 0)
(9.99054 0.107786 0)
(10.0163 0.103954 0)
(10.0489 0.096219 0)
(10.0827 0.0865725 0)
(10.1176 0.0773378 0)
(10.1429 0.0709275 0)
(9.77348 0.0063156 0)
(9.93726 0.0167524 0)
(9.91682 0.0943041 0)
(9.86255 0.0971891 0)
(9.84821 0.0587111 0)
(9.87036 0.0333115 0)
(9.9128 0.0378114 0)
(9.95689 0.0643572 0)
(9.98969 0.0954335 0)
(10.0114 0.117305 0)
(10.03 0.12342 0)
(10.0543 0.112271 0)
(10.0889 0.0874119 0)
(10.1324 0.0569767 0)
(10.1809 0.030594 0)
(10.2246 0.0152202 0)
(10.2613 0.0135525 0)
(10.2824 0.0250739 0)
(10.1073 0.0633556 0)
(9.94884 0.0183807 0)
(9.97466 0.0393527 0)
(10.0155 0.0714293 0)
(10.0184 0.0639502 0)
(9.97073 0.0371991 0)
(9.90941 0.0206408 0)
(9.87947 0.0223427 0)
(9.9007 0.0328074 0)
(9.96718 0.0423738 0)
(10.0558 0.0472967 0)
(10.1432 0.0469138 0)
(10.2111 0.0425886 0)
(10.2564 0.0369775 0)
(10.2809 0.0334601 0)
(10.2946 0.0334263 0)
(10.3025 0.0372962 0)
(10.3138 0.0438727 0)
(9.99329 0.0918225 0)
(10.1349 0.0605905 0)
(10.1091 0.0308053 0)
(10.0843 0.0247419 0)
(10.0907 0.049163 0)
(10.1058 0.0807157 0)
(10.125 0.0959657 0)
(10.1494 0.0917433 0)
(10.1767 0.0767064 0)
(10.2026 0.0614012 0)
(10.2215 0.0504211 0)
(10.2301 0.0422136 0)
(10.2309 0.0331141 0)
(10.2295 0.021363 0)
(10.232 0.0103075 0)
(10.2382 0.00262447 0)
(10.2491 0.00301665 0)
(10.2578 0.0118358 0)
(9.90075 -0.0438434 0)
(9.91661 0.0165873 0)
(9.9654 0.0664967 0)
(9.97634 0.077856 0)
(9.97687 0.050349 0)
(9.98518 0.0181551 0)
(9.99854 0.00290567 0)
(10.0094 0.00213237 0)
(10.0146 0.00706443 0)
(10.0186 0.0144137 0)
(10.0281 0.0234409 0)
(10.046 0.0312832 0)
(10.0753 0.0342132 0)
(10.1152 0.0303365 0)
(10.1629 0.0227222 0)
(10.2132 0.0162879 0)
(10.261 0.0156199 0)
(10.3051 0.0258647 0)
(10.0255 0.122973 0)
(9.77155 0.0469405 0)
(9.8543 -0.00324353 0)
(9.9344 0.0473518 0)
(9.94067 0.0902665 0)
(9.92183 0.0859716 0)
(9.92589 0.0603465 0)
(9.96044 0.0425495 0)
(10.0128 0.039329 0)
(10.0723 0.0409198 0)
(10.133 0.0357514 0)
(10.1905 0.0191192 0)
(10.2392 -0.00608493 0)
(10.2746 -0.0325116 0)
(10.29 -0.0528093 0)
(10.2887 -0.0617792 0)
(10.2714 -0.0576261 0)
(10.2534 -0.0415143 0)
(9.89628 0.0275918 0)
(10.1605 0.063204 0)
(10.1904 -0.00406457 0)
(10.1027 -0.00713726 0)
(10.0181 0.00985111 0)
(9.95777 0.0216533 0)
(9.91618 0.0178014 0)
(9.90449 -0.00332166 0)
(9.93287 -0.0317266 0)
(9.99603 -0.0543066 0)
(10.0746 -0.0626689 0)
(10.1471 -0.0546447 0)
(10.1996 -0.0340709 0)
(10.2285 -0.00762744 0)
(10.2369 0.0176864 0)
(10.232 0.0382039 0)
(10.2208 0.0524455 0)
(10.2131 0.0621459 0)
(10.012 0.0264476 0)
(10.1407 -0.119191 0)
(10.1542 0.0204825 0)
(10.1368 0.185821 0)
(10.1126 0.216191 0)
(10.1014 0.148839 0)
(10.108 0.0564643 0)
(10.1328 -0.0165093 0)
(10.1658 -0.0561837 0)
(10.1887 -0.069815 0)
(10.1872 -0.0713485 0)
(10.1583 -0.0693836 0)
(10.1132 -0.0659091 0)
(10.0683 -0.060898 0)
(10.0378 -0.055288 0)
(10.0282 -0.0482966 0)
(10.0391 -0.0416958 0)
(10.0687 -0.0309101 0)
(9.94118 0.00184643 0)
(9.80371 -0.0196525 0)
(9.86872 0.00149617 0)
(9.98807 -0.00219219 0)
(10.0831 0.0174447 0)
(10.1288 0.0440912 0)
(10.1297 0.0261592 0)
(10.1184 -0.0324089 0)
(10.1136 -0.0827532 0)
(10.1111 -0.0870245 0)
(10.1011 -0.0456566 0)
(10.0808 0.014031 0)
(10.0554 0.0614657 0)
(10.0346 0.0793063 0)
(10.0229 0.0659286 0)
(10.0251 0.033722 0)
(10.0375 -0.0057226 0)
(10.0623 -0.0362866 0)
(9.98287 -0.128277 0)
(9.98687 -0.103406 0)
(9.95387 -0.0442251 0)
(9.90229 0.0221323 0)
(9.90307 0.0653469 0)
(9.973 0.0676382 0)
(10.0546 0.0406609 0)
(10.0973 0.00739003 0)
(10.0871 -0.0134789 0)
(10.0427 -0.0168343 0)
(9.99495 -0.0100443 0)
(9.96537 -0.00414432 0)
(9.95901 -0.00771191 0)
(9.96865 -0.0217283 0)
(9.98355 -0.0435584 0)
(9.99503 -0.0665499 0)
(10.0017 -0.0875001 0)
(10.0017 -0.10267 0)
(9.9217 -0.106763 0)
(9.90103 -0.116707 0)
(9.98577 -0.0356934 0)
(10.0492 -0.00421214 0)
(10.0818 -0.0374968 0)
(10.1054 -0.0908292 0)
(10.1262 -0.113351 0)
(10.1476 -0.0882575 0)
(10.167 -0.0339127 0)
(10.1802 0.0197771 0)
(10.189 0.0535105 0)
(10.2 0.0639103 0)
(10.2164 0.0562558 0)
(10.2362 0.0384932 0)
(10.2553 0.0169317 0)
(10.2698 -0.00516567 0)
(10.2791 -0.0266463 0)
(10.282 -0.0495843 0)
(10.2094 -0.09934 0)
(10.12 -0.11685 0)
(10.0798 -0.0845283 0)
(10.0952 -0.060801 0)
(10.1219 -0.0426513 0)
(10.0976 -0.0383896 0)
(10.0362 -0.051486 0)
(9.98768 -0.0660653 0)
(9.97253 -0.0694462 0)
(9.98395 -0.0648955 0)
(10.0096 -0.0636988 0)
(10.0387 -0.0726336 0)
(10.0632 -0.0892153 0)
(10.0805 -0.105613 0)
(10.0921 -0.114628 0)
(10.1007 -0.115225 0)
(10.1081 -0.10958 0)
(10.1156 -0.104653 0)
(10.0107 0.0361706 0)
(10.0063 0.024572 0)
(10.0733 -0.0936964 0)
(10.0771 -0.087461 0)
(10.0913 0.0169616 0)
(10.1055 0.0930287 0)
(10.0971 0.0931127 0)
(10.0905 0.0432847 0)
(10.1086 -0.0121406 0)
(10.1474 -0.0459661 0)
(10.1888 -0.0549045 0)
(10.2155 -0.0491612 0)
(10.2196 -0.0404443 0)
(10.2032 -0.0372847 0)
(10.1764 -0.0429834 0)
(10.1495 -0.0564627 0)
(10.1303 -0.0748993 0)
(10.1219 -0.0929864 0)
(10.0815 0.00140172 0)
(10.0808 -0.0424655 0)
(10.0322 -0.129912 0)
(9.97562 -0.136353 0)
(9.99653 -0.0704362 0)
(10.0892 -0.0115901 0)
(10.1911 -0.0133711 0)
(10.246 -0.0700077 0)
(10.2353 -0.135474 0)
(10.177 -0.166405 0)
(10.1072 -0.149882 0)
(10.0557 -0.101914 0)
(10.0327 -0.0492001 0)
(10.0341 -0.0138234 0)
(10.0494 -0.00625468 0)
(10.0701 -0.0235538 0)
(10.0895 -0.0579573 0)
(10.1052 -0.0959076 0)
(10.0471 -0.000441648 0)
(10.0818 0.0101501 0)
(10.027 -0.00103489 0)
(9.95037 -0.066095 0)
(9.9566 -0.138338 0)
(10.024 -0.161068 0)
(10.0947 -0.118864 0)
(10.1473 -0.0398717 0)
(10.1746 0.0310731 0)
(10.1728 0.0627204 0)
(10.1533 0.0513541 0)
(10.1365 0.013783 0)
(10.1343 -0.0291721 0)
(10.1451 -0.0640291 0)
(10.1591 -0.08662 0)
(10.1655 -0.0995727 0)
(10.158 -0.106593 0)
(10.1328 -0.113241 0)
(9.94607 0.0776082 0)
(9.92911 -0.00189385 0)
(9.98633 -0.0576983 0)
(10.0239 -0.074889 0)
(10.011 -0.0857955 0)
(9.96476 -0.112454 0)
(9.91555 -0.135018 0)
(9.89804 -0.129538 0)
(9.92172 -0.0982798 0)
(9.96707 -0.0606412 0)
(10.0107 -0.0344951 0)
(10.0385 -0.0269673 0)
(10.046 -0.0345404 0)
(10.0356 -0.0479627 0)
(10.0167 -0.0581201 0)
(10.0006 -0.061127 0)
(9.99436 -0.0574616 0)
(10.0031 -0.0520308 0)
(10.0465 0.0781665 0)
(9.96293 0.0821013 0)
(9.96851 -0.0141221 0)
(10.0108 -0.0734088 0)
(10.087 -0.0943067 0)
(10.1365 -0.0888717 0)
(10.1205 -0.073436 0)
(10.0674 -0.066236 0)
(10.0213 -0.0720773 0)
(10.0004 -0.0805493 0)
(10.0026 -0.0796611 0)
(10.0189 -0.0666627 0)
(10.0387 -0.0475083 0)
(10.0528 -0.0313919 0)
(10.0589 -0.0266947 0)
(10.0591 -0.0356837 0)
(10.0589 -0.0578988 0)
(10.0604 -0.0876061 0)
(10.248 0.0298016 0)
(10.235 0.0116575 0)
(10.1971 -0.109471 0)
(10.1284 -0.164286 0)
(10.0754 -0.15271 0)
(10.053 -0.119039 0)
(10.0487 -0.0806593 0)
(10.057 -0.0474402 0)
(10.0723 -0.0272563 0)
(10.0822 -0.0209458 0)
(10.0805 -0.0243972 0)
(10.0734 -0.0336442 0)
(10.0716 -0.0452826 0)
(10.0828 -0.057229 0)
(10.1092 -0.069154 0)
(10.1467 -0.0817028 0)
(10.1892 -0.0957259 0)
(10.2271 -0.1112 0)
(10.2277 0.0904794 0)
(10.3022 0.0820711 0)
(10.2763 0.0178383 0)
(10.181 -0.0613743 0)
(10.1139 -0.105299 0)
(10.1218 -0.109368 0)
(10.164 -0.0954107 0)
(10.1854 -0.0856051 0)
(10.1628 -0.0847243 0)
(10.1049 -0.0847297 0)
(10.0385 -0.0803487 0)
(9.99125 -0.0748791 0)
(9.97527 -0.0739274 0)
(9.98719 -0.0802365 0)
(10.0132 -0.0922852 0)
(10.0387 -0.106485 0)
(10.0524 -0.119496 0)
(10.0473 -0.126415 0)
(9.92204 0.0200815 0)
(9.94422 0.0307995 0)
(10.0799 0.013783 0)
(10.1477 -0.0236584 0)
(10.1412 -0.0696537 0)
(10.1132 -0.0977085 0)
(10.0853 -0.0867425 0)
(10.0531 -0.0437743 0)
(10.0154 0.00442912 0)
(9.97978 0.0333039 0)
(9.95743 0.0322701 0)
(9.95503 0.00501695 0)
(9.97067 -0.0358769 0)
(9.99595 -0.0760056 0)
(10.0217 -0.104129 0)
(10.0405 -0.116486 0)
(10.0489 -0.114055 0)
(10.0443 -0.102478 0)
(9.97242 0.000367583 0)
(10.0965 -0.00856626 0)
(10.205 -0.0457575 0)
(10.2832 -0.0709066 0)
(10.286 -0.0935287 0)
(10.2332 -0.100703 0)
(10.1812 -0.0819333 0)
(10.1689 -0.046418 0)
(10.203 -0.016627 0)
(10.2655 -0.00950043 0)
(10.3284 -0.0261785 0)
(10.367 -0.0563401 0)
(10.3684 -0.0870919 0)
(10.3331 -0.109843 0)
(10.2739 -0.120666 0)
(10.2093 -0.120529 0)
(10.1537 -0.112074 0)
(10.1178 -0.0990337 0)
(9.9789 -0.0293707 0)
(10.0213 -0.0639694 0)
(10.1621 -0.106707 0)
(10.2542 -0.12051 0)
(10.2245 -0.108497 0)
(10.1299 -0.0874819 0)
(10.0383 -0.072153 0)
(9.99026 -0.0650808 0)
(9.99893 -0.062256 0)
(10.0514 -0.0598544 0)
(10.12 -0.0560359 0)
(10.178 -0.0514499 0)
(10.2082 -0.0485795 0)
(10.2056 -0.0500043 0)
(10.1747 -0.0561734 0)
(10.1285 -0.0653356 0)
(10.0775 -0.0751771 0)
(10.0341 -0.083221 0)
(10.1623 -0.0272702 0)
(10.0214 -0.033745 0)
(9.72327 -0.0470476 0)
(9.42137 -0.0153462 0)
(9.18293 0.0143271 0)
(9.01708 0.0155692 0)
(8.88793 0.00187405 0)
(8.76735 -0.0118261 0)
(8.64223 -0.0248309 0)
(8.5033 -0.0400549 0)
(8.34832 -0.0546729 0)
(8.18651 -0.0624167 0)
(8.03134 -0.0602596 0)
(7.89097 -0.0511059 0)
(7.76417 -0.0405034 0)
(7.64706 -0.0329073 0)
(7.53198 -0.0303815 0)
(7.41752 -0.0306959 0)
(-0.194974 0.0758234 1.0134e-20)
(-0.416085 0.000306694 -1.00373e-20)
(-0.620042 -0.00705383 0)
(-0.836713 -0.026506 0)
(-1.01665 -0.0638394 0)
(-1.11773 -0.108101 9.65171e-21)
(-1.1214 -0.132739 0)
(-1.07963 -0.126886 0)
(-1.06419 -0.0997072 0)
(-1.06758 -0.0620782 0)
(-1.10558 -0.0132179 -9.31458e-21)
(-1.17316 0.0273962 0)
(-1.25485 0.0474562 0)
(-1.34931 0.0454328 0)
(-1.45585 0.0268658 0)
(-1.57047 0.000161061 -8.94058e-21)
(-1.68959 -0.0217129 0)
(-1.81626 -0.0248834 0)
(-1.95697 -0.00470914 0)
(-2.11715 0.0332297 0)
(-2.29831 0.0779178 0)
(-2.4964 0.117935 0)
(-2.70185 0.146099 0)
(-2.90255 0.159736 -8.22903e-21)
(-3.08692 0.158729 8.16731e-21)
(-3.24418 0.144951 -8.12418e-21)
(-3.36604 0.121374 -8.10249e-21)
(-3.44724 0.0909463 0)
(-3.48377 0.056628 0)
(-3.47243 0.019744 8.18414e-21)
(-3.41537 -0.0201922 8.26145e-21)
(-3.31291 -0.0612536 0)
(-3.16424 -0.0988226 0)
(-2.96874 -0.132256 8.62324e-21)
(-2.73034 -0.1673 0)
(-2.45398 -0.208211 0)
(-2.13799 -0.249752 -9.10024e-21)
(-1.77829 -0.28152 0)
(-1.38146 -0.300806 -9.41799e-21)
(-0.960595 -0.316695 -1.91227e-20)
(-0.519211 -0.34288 0)
(-0.0491262 -0.384804 0)
(0.453696 -0.424974 0)
(0.976812 -0.419077 0)
(1.49005 -0.371387 0)
(1.98263 -0.390449 -1.97073e-20)
(2.49986 -0.487394 -1.95727e-20)
(3.02976 -0.417598 -1.93839e-20)
(3.40775 -0.212395 0)
(3.65789 -0.328413 1.89284e-20)
(4.00563 -0.419586 0)
(4.08157 0.236111 -1.84466e-20)
(3.57009 0.78309 -1.82351e-20)
(2.87955 0.3965 0)
(2.37818 -0.162922 0)
(2.14403 -0.24351 0)
(2.02622 0.0781384 -1.71157e-20)
(1.74626 0.243233 0)
(1.29661 0.0707515 0)
(0.868591 -0.130973 0)
(0.544278 -0.258231 0)
(0.366453 -0.376476 0)
(0.403924 -0.543934 0)
(0.756067 -0.766473 0)
(1.49776 -0.946337 0)
(2.57303 -0.90489 1.54302e-20)
(3.64233 -0.671877 0)
(4.48775 -0.552993 0)
(5.01427 -0.23835 -1.50515e-20)
(4.43354 0.683914 -1.51239e-20)
(2.96243 0.951177 0)
(1.75877 0.315854 1.52574e-20)
(1.3119 -0.0303782 -1.50346e-20)
(1.33343 -0.372757 0)
(1.87878 -0.741823 1.47588e-20)
(2.32148 -0.351385 0)
(0.73998 0.730144 0)
(-1.22688 0.948296 -1.35628e-20)
(-2.5676 0.758903 0)
(-3.67871 0.585302 1.15587e-20)
(-4.55681 0.446576 0)
(-5.25306 0.341944 -9.37866e-21)
(-5.807 0.266476 -8.38753e-21)
(-6.25193 0.212252 -7.48209e-21)
(-6.61893 0.174172 -1.33181e-20)
(-6.92915 0.148168 1.18197e-20)
(-7.20181 0.13135 0)
(-7.45037 0.121844 0)
(-7.68711 0.118783 0)
(-7.92198 0.121267 6.93916e-21)
(-8.16394 0.128357 5.92096e-21)
(-8.42038 0.139018 -4.96076e-21)
(-8.69719 0.15181 0)
(-8.99782 0.164917 3.18888e-21)
(-9.32259 0.176083 2.3739e-21)
(-9.66736 0.182335 1.61423e-21)
(-10.0217 0.180145 0)
(-10.3669 0.165791 0)
(-10.6743 0.136213 0)
(-10.9066 0.0903664 -2.17099e-22)
(-11.0225 0.0310071 0)
(-10.9859 -0.0354415 0)
(-10.797 -0.103411 -1.31377e-21)
(-10.4622 -0.167257 0)
(-9.99882 -0.219787 0)
(-9.439 -0.25713 -5.30449e-21)
(-8.81514 -0.279125 0)
(-8.15783 -0.287828 0)
(-7.49106 -0.286668 9.43536e-21)
(-6.83163 -0.279099 1.06096e-20)
(-6.18982 -0.268002 0)
(-5.57066 -0.255493 -1.26362e-20)
(-4.9755 -0.242926 0)
(-4.40345 -0.230998 1.43028e-20)
(-3.85241 -0.219921 0)
(-3.31971 -0.209653 1.56812e-20)
(-2.80267 -0.200034 1.62753e-20)
(-2.29903 -0.190973 0)
(-1.80685 -0.182851 0)
(-1.3241 -0.176374 0)
(-0.848956 -0.172002 0)
(-0.380675 -0.171701 0)
(0.0836774 -0.179679 0)
(0.550171 -0.187486 0)
(1.02122 -0.164475 1.88e-20)
(1.47282 -0.0970083 -1.88271e-20)
(1.84451 -0.0557575 0)
(2.13759 -0.112257 0)
(2.42566 -0.151004 0)
(2.6612 -0.0432533 0)
(2.71987 -0.00870712 -3.65125e-20)
(2.79408 -0.225856 0)
(3.15878 -0.302145 3.57936e-20)
(3.38497 0.0474431 -3.54815e-20)
(2.91531 0.253296 0)
(2.22785 0.0218794 0)
(1.74593 -0.185867 0)
(1.44476 -0.203973 3.31456e-20)
(1.42626 -0.216155 3.26102e-20)
(1.8302 -0.213487 0)
(2.52272 -0.0744751 3.24076e-20)
(3.0022 0.0712502 3.20656e-20)
(2.98447 0.11953 -3.1521e-20)
(2.57603 0.163273 0)
(1.8622 0.240519 0)
(0.930165 0.301512 -2.8401e-20)
(-0.0895548 0.320906 0)
(-1.09264 0.306933 0)
(-2.01742 0.276359 0)
(-2.83424 0.238125 0)
(-3.51979 0.194989 1.72763e-20)
(-4.05543 0.14849 1.52028e-20)
(-4.42674 0.0997077 0)
(-4.62453 0.0498763 1.23072e-20)
(-4.64472 0.00140266 0)
(-4.50258 -0.0436466 0)
(-4.21122 -0.0836828 1.19226e-20)
(-3.79081 -0.116374 0)
(-3.26672 -0.140064 1.37717e-20)
(-2.66747 -0.154117 0)
(-2.02241 -0.159099 0)
(-1.36016 -0.156402 1.72745e-20)
(-0.706444 -0.147934 0)
(-0.0828431 -0.135526 1.89813e-20)
(0.494996 -0.120761 0)
(1.01785 -0.104954 0)
(1.48244 -0.0890659 0)
(1.88894 -0.0740235 -2.0116e-20)
(2.2411 -0.0603167 0)
(2.54168 -0.0481943 1.99186e-20)
(2.80037 -0.0383124 0)
(3.01804 -0.0300801 0)
(3.21436 -0.0214573 0)
(3.36332 -0.0204518 0)
(3.52436 -0.0181343 0)
(3.61797 -0.00670464 0)
(3.71755 0.0503509 0)
(3.59621 0.0486606 -3.57369e-20)
(3.58875 -0.0494465 0)
(3.64164 -0.100094 0)
(-0.146087 0.631194 -3.02961e-20)
(-0.306684 0.619674 3.00319e-20)
(-0.4789 0.592741 0)
(-0.621619 0.506293 -1.95976e-20)
(-0.664363 0.352245 0)
(-0.570769 0.133498 -9.67554e-21)
(-0.4087 -0.0655561 1.91774e-20)
(-0.30246 -0.12119 1.90578e-20)
(-0.277529 -0.0115335 0)
(-0.306153 0.112026 1.87813e-20)
(-0.374422 0.182683 9.33769e-21)
(-0.462895 0.182752 0)
(-0.55578 0.162964 0)
(-0.670763 0.200748 0)
(-0.840714 0.296344 0)
(-1.09172 0.412153 8.95291e-21)
(-1.43306 0.539028 0)
(-1.8472 0.659209 -1.74478e-20)
(-2.29578 0.749222 0)
(-2.73836 0.80069 0)
(-3.14721 0.814656 1.67545e-20)
(-3.50945 0.794982 0)
(-3.82123 0.745658 -1.63175e-20)
(-4.08259 0.67183 8.2001e-21)
(-4.29481 0.578998 -8.1389e-21)
(-4.45932 0.47207 8.09675e-21)
(-4.57732 0.355196 8.07626e-21)
(-4.64906 0.232267 0)
(-4.67403 0.107244 0)
(-4.65328 -0.0168601 -8.15999e-21)
(-4.58534 -0.13897 7.94928e-21)
(-4.47104 -0.259126 0)
(-4.31026 -0.376246 0)
(-4.10456 -0.487948 -8.59559e-21)
(-3.85606 -0.591668 0)
(-3.56629 -0.686377 0)
(-3.23818 -0.77414 9.06927e-21)
(-2.87789 -0.859091 0)
(-2.48959 -0.941758 -9.15728e-21)
(-2.06972 -1.01438 1.90545e-20)
(-1.61529 -1.06686 0)
(-1.13436 -1.09788 0)
(-0.641767 -1.12289 3.8989e-20)
(-0.137471 -1.15775 3.92179e-20)
(0.397877 -1.19248 3.9285e-20)
(0.958595 -1.183 -1.94644e-20)
(1.50307 -1.09539 1.95963e-20)
(1.99659 -0.972146 5.80708e-20)
(2.50865 -0.861853 -3.82652e-20)
(3.04823 -0.737274 -1.89409e-20)
(3.45725 -0.467037 0)
(3.77104 -0.0150744 1.84479e-20)
(4.19812 0.477898 -1.79301e-20)
(4.68695 1.08367 0)
(4.61405 1.37273 0)
(3.85232 0.755937 0)
(3.118 0.232185 1.70621e-20)
(2.76449 0.448757 0)
(2.56907 0.718949 -3.2648e-20)
(2.2683 0.581003 0)
(1.85328 0.216671 -3.09461e-20)
(1.48892 -0.180042 0)
(1.3001 -0.697335 2.9575e-20)
(1.36076 -1.40774 0)
(1.73818 -2.08604 -2.9549e-20)
(2.48601 -2.27333 1.45084e-20)
(3.44594 -1.84799 0)
(4.13739 -1.15435 2.97165e-20)
(4.47775 -0.058938 1.50589e-20)
(4.71348 1.13084 1.51031e-20)
(4.45081 1.541 0)
(3.2167 1.93105 1.47978e-20)
(3.06865 1.12189 1.49835e-20)
(3.06393 -0.136049 0)
(1.33575 0.595538 -1.47905e-20)
(-0.65847 1.89129 2.86888e-20)
(-2.43975 2.3698 0)
(-3.58799 2.16869 1.34788e-20)
(-4.43776 1.80365 0)
(-5.10191 1.43661 -3.34553e-20)
(-5.66133 1.12836 0)
(-6.11736 0.887892 2.73486e-20)
(-6.51265 0.708861 8.37226e-21)
(-6.84958 0.579825 -7.02262e-21)
(-7.15026 0.489081 -1.25904e-20)
(-7.42202 0.427851 1.12358e-20)
(-7.67716 0.389109 0)
(-7.92288 0.367906 0)
(-8.16642 0.360957 0)
(-8.41255 0.365567 -2.05101e-20)
(-8.66499 0.379383 -5.91463e-21)
(-8.92617 0.399933 4.95538e-21)
(-9.19726 0.424136 0)
(-9.47805 0.447975 2.91259e-21)
(-9.76658 0.466298 -2.37145e-21)
(-10.0584 0.472454 -1.61268e-21)
(-10.3455 0.458237 0)
(-10.6144 0.414171 0)
(-10.8437 0.331013 0)
(-11.0051 0.203303 2.17038e-22)
(-11.0677 0.0343769 0)
(-11.0068 -0.161332 1.55517e-23)
(-10.7919 -0.363247 3.12942e-21)
(-10.4231 -0.549157 -4.25132e-21)
(-9.92571 -0.699309 0)
(-9.33288 -0.803478 -4.81536e-21)
(-8.68332 -0.861734 0)
(-8.00957 -0.881364 -1.594e-20)
(-7.33599 -0.873026 9.12277e-21)
(-6.67814 -0.847256 1.03239e-20)
(-6.0443 -0.812638 0)
(-5.43739 -0.775301 3.76486e-20)
(-4.85689 -0.73908 -2.67838e-20)
(-4.30041 -0.705946 -1.42951e-20)
(-3.76473 -0.676559 0)
(-3.24626 -0.650852 -1.5673e-20)
(-2.74147 -0.628222 -4.86534e-20)
(-2.24769 -0.607458 0)
(-1.76312 -0.587793 -3.44316e-20)
(-1.28565 -0.570277 -3.5271e-20)
(-0.813468 -0.556287 -3.59867e-20)
(-0.343211 -0.54396 0)
(0.127946 -0.531162 0)
(0.590452 -0.520436 0)
(1.02448 -0.514477 1.87261e-20)
(1.44758 -0.495269 1.88185e-20)
(1.92494 -0.426706 0)
(2.4408 -0.315598 3.73921e-20)
(2.80191 -0.23008 3.7154e-20)
(2.96277 -0.171816 0)
(3.16076 -0.111083 3.6491e-20)
(3.38581 -0.146407 7.22091e-20)
(3.42283 -0.246505 -3.57764e-20)
(3.48872 -0.114837 -3.53312e-20)
(3.78278 0.253496 0)
(4.16088 0.553314 0)
(4.05279 0.566089 0)
(3.41752 0.235778 -3.30618e-20)
(2.90619 -0.315152 3.25122e-20)
(2.78893 -0.792894 6.47531e-20)
(3.1258 -0.784189 -3.23714e-20)
(3.48823 -0.309614 3.2056e-20)
(3.20499 0.222827 3.15005e-20)
(2.28387 0.596701 0)
(1.14985 0.810338 0)
(0.0632172 0.88806 -2.80209e-20)
(-0.91105 0.87531 0)
(-1.77541 0.813253 0)
(-2.54063 0.725217 4.34724e-20)
(-3.20357 0.620245 0)
(-3.75308 0.501536 1.67344e-20)
(-4.17678 0.371417 -1.51957e-20)
(-4.4635 0.232521 0)
(-4.60458 0.0886178 1.1769e-20)
(-4.59694 -0.0543738 0)
(-4.43148 -0.189916 0)
(-4.11784 -0.310985 -1.19202e-20)
(-3.67479 -0.410419 2.49877e-20)
(-3.12782 -0.482999 -1.37668e-20)
(-2.50587 -0.526653 0)
(-1.83896 -0.542838 0)
(-1.1563 -0.535716 1.71044e-20)
(-0.483939 -0.511085 0)
(0.155977 -0.474778 1.88973e-20)
(0.748238 -0.431898 0)
(1.28416 -0.38621 0)
(1.76222 -0.339936 0)
(2.1836 -0.295739 2.01056e-20)
(2.55547 -0.253896 0)
(2.87755 -0.217342 -1.99095e-20)
(3.16716 -0.184934 0)
(3.41217 -0.160517 0)
(3.65013 -0.137071 3.83946e-20)
(3.86179 -0.117226 -3.78367e-20)
(4.07631 -0.0954502 0)
(4.22186 -0.0759077 0)
(4.3879 -0.04402 0)
(4.60588 0.0174745 1.07064e-19)
(4.70529 0.0568042 0)
(4.58617 0.0197379 -6.95866e-20)
(-0.0516201 1.08235 4.6821e-23)
(-0.0870167 1.04178 -3.9951e-20)
(-0.15382 0.921738 0)
(-0.238769 0.743026 3.92372e-20)
(-0.208611 0.409998 0)
(-0.0178429 -0.0968078 0)
(0.0894382 -0.385268 -2.54615e-23)
(0.165252 -0.458648 -1.90651e-20)
(0.105922 -0.280715 -1.88744e-20)
(0.0327898 -0.12575 -1.88059e-20)
(-0.112073 0.15748 0)
(-0.377192 0.47731 0)
(-0.80575 0.74366 1.82504e-20)
(-1.31292 0.950623 3.60807e-20)
(-1.80688 1.15591 -3.56092e-20)
(-2.29944 1.34342 0)
(-2.78983 1.46217 -3.46008e-20)
(-3.25679 1.51911 1.73626e-20)
(-3.69221 1.5169 0)
(-4.08844 1.46473 -3.29897e-20)
(-4.4417 1.37558 -1.66813e-20)
(-4.75086 1.25768 3.1942e-20)
(-5.01573 1.11752 1.62555e-20)
(-5.23664 0.959566 0)
(-5.41352 0.787632 -3.07771e-20)
(-5.54597 0.604623 -3.05681e-20)
(-5.6333 0.413276 0)
(-5.67446 0.216637 -3.04888e-20)
(-5.6684 0.017852 0)
(-5.61467 -0.180174 -3.08678e-20)
(-5.51423 -0.374764 -1.61438e-20)
(-5.36889 -0.563588 0)
(-5.18125 -0.745306 0)
(-4.95408 -0.918919 0)
(-4.69005 -1.08271 0)
(-4.39218 -1.23414 0)
(-4.06421 -1.37082 0)
(-3.70991 -1.49161 -3.55562e-20)
(-3.33208 -1.59713 5.46989e-20)
(-2.93278 -1.69037 0)
(-2.51289 -1.77491 0)
(-2.07138 -1.85023 0)
(-1.60795 -1.90916 -6.44996e-22)
(-1.12532 -1.94289 -3.90971e-20)
(-0.624294 -1.9484 -7.79021e-20)
(-0.103023 -1.91999 7.79442e-20)
(0.449678 -1.84316 3.86303e-20)
(1.02713 -1.71577 -3.87004e-20)
(1.58653 -1.55708 2.39635e-22)
(2.12611 -1.36944 -3.76168e-20)
(2.64369 -1.05528 0)
(3.155 -0.56902 -3.65895e-20)
(3.6688 -0.0839282 1.29488e-22)
(4.13098 0.360128 0)
(4.58812 0.906789 0)
(4.95438 1.41922 3.43037e-20)
(4.68963 1.42558 0)
(4.01006 1.03563 0)
(3.67165 0.905616 -3.21416e-20)
(3.56469 1.04939 -6.29816e-20)
(3.35825 1.08723 3.08351e-20)
(3.06615 0.742888 0)
(2.79036 -0.0679186 -2.94928e-20)
(2.59272 -1.26253 0)
(2.56469 -2.49097 -2.78751e-20)
(2.81145 -3.09335 -2.98545e-20)
(3.36478 -2.63624 5.84108e-20)
(3.83948 -1.46987 2.83349e-20)
(4.06186 -0.31026 0)
(4.44534 0.755175 -5.72142e-20)
(3.92087 2.46297 0)
(2.99226 2.96189 -8.92685e-20)
(2.84306 1.09608 -6.02222e-20)
(1.2936 1.27535 -5.98694e-20)
(-0.983689 2.89455 5.80651e-20)
(-2.59513 3.62807 -8.37598e-20)
(-3.56339 3.54479 0)
(-4.11926 3.10656 0)
(-4.61128 2.57752 4.47596e-20)
(-5.00077 2.07778 6.30384e-20)
(-5.37978 1.6593 0)
(-5.71604 1.33151 -1.79909e-20)
(-6.03275 1.0856 0)
(-6.32248 0.906896 4.22442e-20)
(-6.59355 0.781311 1.02347e-21)
(-6.84881 0.696273 -8.48765e-22)
(-7.09335 0.642789 -1.97073e-20)
(-7.33187 0.613627 0)
(-7.56839 0.603635 1.51738e-20)
(-7.80683 0.608696 4.86044e-22)
(-8.05056 0.625507 0)
(-8.30275 0.650761 0)
(-8.56608 0.680695 0)
(-8.84266 0.710372 -6.10124e-21)
(-9.1336 0.733152 0)
(-9.43854 0.74017 0)
(-9.75408 0.719579 0)
(-10.0704 0.656144 0)
(-10.3661 0.532771 0)
(-10.604 0.33613 2.55326e-21)
(-10.7353 0.0657487 0)
(-10.7136 -0.258869 -1.55557e-23)
(-10.5099 -0.600329 -1.81606e-21)
(-10.1243 -0.916052 4.25046e-21)
(-9.58651 -1.17055 0)
(-8.94431 -1.34399 1.01126e-20)
(-8.24693 -1.43576 0)
(-7.53481 -1.45993 1.59348e-20)
(-6.83578 -1.43648 -1.8547e-20)
(-6.16596 -1.38486 -6.18196e-20)
(-5.53267 -1.32038 0)
(-4.93729 -1.25363 -7.42551e-20)
(-4.37751 -1.19097 -2.60579e-20)
(-3.8491 -1.13549 0)
(-3.34717 -1.08801 -5.91068e-20)
(-2.86666 -1.04811 -6.1829e-20)
(-2.40256 -1.01464 9.66771e-20)
(-1.95078 -0.985781 0)
(-1.50872 -0.959639 3.44223e-20)
(-1.07393 -0.93623 3.52601e-20)
(-0.646603 -0.91876 1.0764e-19)
(-0.229156 -0.909427 0)
(0.18157 -0.899843 0)
(0.59894 -0.87146 0)
(1.02104 -0.820254 3.73045e-20)
(1.41559 -0.779271 0)
(1.78983 -0.768423 0)
(2.23363 -0.711703 -3.73794e-20)
(2.72682 -0.526822 -3.71425e-20)
(3.04904 -0.312597 0)
(3.20173 -0.248112 0)
(3.43888 -0.312869 -7.21857e-20)
(3.69227 -0.279223 0)
(3.72058 -0.0767991 7.07818e-20)
(3.78053 0.114303 6.96954e-20)
(4.16339 0.255443 0)
(4.62411 0.527443 0)
(4.75772 0.759322 -6.61405e-20)
(4.45504 0.459387 2.22405e-22)
(3.86813 -0.276756 2.62101e-22)
(3.46185 -0.540011 0)
(3.24268 -0.048048 -1.28377e-19)
(2.65194 0.679952 0)
(1.66727 1.20627 0)
(0.691643 1.43744 0)
(-0.148507 1.4684 5.63752e-20)
(-0.915888 1.40743 0)
(-1.65454 1.30377 -9.48404e-20)
(-2.36161 1.16906 -4.34471e-20)
(-3.00735 1.0048 0)
(-3.56034 0.814507 -3.39867e-20)
(-3.99614 0.603716 0)
(-4.2962 0.377945 0)
(-4.4465 0.143305 -7.05061e-20)
(-4.43901 -0.0922282 4.37835e-20)
(-4.27345 -0.317559 0)
(-3.95843 -0.519549 4.51137e-20)
(-3.51146 -0.685852 -2.49793e-20)
(-2.95755 -0.80732 0)
(-2.32623 -0.880117 0)
(-1.64846 -0.906222 0)
(-0.954299 -0.892376 -1.02512e-19)
(-0.270845 -0.848037 0)
(0.377867 -0.783322 -3.78455e-20)
(0.974203 -0.707532 0)
(1.50613 -0.628402 0)
(1.96954 -0.550783 0)
(2.36562 -0.479381 0)
(2.70285 -0.413807 0)
(2.98889 -0.357848 0)
(3.23815 -0.308977 -7.87773e-20)
(3.45139 -0.271545 0)
(3.64217 -0.246935 -3.83885e-20)
(3.81976 -0.226547 1.13443e-19)
(4.00598 -0.202328 0)
(4.21282 -0.159648 0)
(4.43868 -0.129881 -7.22915e-20)
(4.66295 -0.0686211 -7.13436e-20)
(4.86546 0.0124861 7.02294e-20)
(4.84234 0.0750982 6.95667e-20)
(0.0271898 1.09288 6.04097e-20)
(0.0984396 1.19062 5.99287e-20)
(0.0795337 0.987599 3.96623e-20)
(0.014908 0.746292 1.97291e-20)
(0.130538 0.239964 0)
(0.346251 -0.397924 -3.86794e-20)
(0.303256 -0.49547 1.92e-20)
(0.171552 -0.28893 0)
(-0.236638 0.483392 1.88604e-20)
(-0.745437 0.880427 0)
(-1.08463 1.1257 -3.67598e-20)
(-1.45569 1.44383 0)
(-1.98072 1.6901 -1.81672e-20)
(-2.53629 1.92811 -3.5907e-20)
(-3.07351 2.13084 3.54353e-20)
(-3.56551 2.25306 0)
(-4.00878 2.29831 3.44448e-20)
(-4.40183 2.27456 0)
(-4.75059 2.19212 0)
(-5.06158 2.0638 3.28751e-20)
(-5.3387 1.90077 0)
(-5.58414 1.71071 -1.58338e-21)
(-5.79708 1.49912 0)
(-5.97536 1.26957 0)
(-6.11553 1.02482 1.72036e-21)
(-6.21404 0.767276 3.05094e-20)
(-6.26786 0.499648 2.86892e-20)
(-6.27492 0.225364 3.04438e-20)
(-6.23415 -0.0516438 0)
(-6.14565 -0.327214 6.00171e-20)
(-6.01002 -0.596972 0)
(-5.82958 -0.856591 3.01268e-20)
(-5.60804 -1.10224 0)
(-5.35014 -1.3311 0)
(-5.06108 -1.54181 -3.21585e-20)
(-4.74597 -1.73444 0)
(-4.40954 -1.90973 3.36833e-20)
(-4.05587 -2.06793 1.06986e-21)
(-3.68848 -2.20848 -7.12884e-20)
(-3.31047 -2.33073 7.15816e-20)
(-2.92455 -2.43516 0)
(-2.5326 -2.52425 0)
(-2.13381 -2.60166 3.64564e-20)
(-1.72429 -2.6687 0)
(-1.29917 -2.71903 3.85751e-20)
(-0.849263 -2.73718 -3.86383e-20)
(-0.367638 -2.70691 -3.85933e-20)
(0.161414 -2.60965 0)
(0.728127 -2.43803 3.80763e-20)
(1.31856 -2.1894 3.76351e-20)
(1.90023 -1.82688 -7.38601e-20)
(2.43735 -1.36235 3.66039e-20)
(2.96161 -0.901324 3.60838e-20)
(3.48008 -0.447765 0)
(4.01857 0.128489 0)
(4.62022 0.821134 -3.43351e-20)
(5.10563 1.42927 0)
(5.23857 1.74538 0)
(4.99887 1.65778 6.44983e-20)
(4.64537 1.37376 6.28098e-20)
(4.3988 1.14027 0)
(4.28807 0.890533 0)
(4.19051 0.333551 0)
(3.97584 -0.829741 0)
(3.72846 -2.34966 5.72377e-20)
(3.60552 -3.28042 -5.73065e-20)
(3.68739 -2.99199 -5.83407e-20)
(3.84253 -1.86275 -1.15023e-19)
(3.84486 -0.411977 0)
(3.46886 1.65363 1.04895e-21)
(2.56737 3.58282 0)
(2.45709 2.7687 5.9347e-20)
(1.67889 2.09198 1.26814e-21)
(-0.53676 3.58953 5.96865e-20)
(-2.30653 4.77927 -5.77992e-20)
(-3.19261 4.7844 2.99532e-21)
(-3.69659 4.29972 0)
(-4.06021 3.66548 -4.51484e-20)
(-4.37252 3.03672 -4.47483e-20)
(-4.63846 2.47983 -7.95229e-20)
(-4.89432 2.0221 0)
(-5.13977 1.66271 3.20939e-20)
(-5.38086 1.39187 0)
(-5.61941 1.19268 -5.41097e-20)
(-5.85385 1.0509 2.48996e-20)
(-6.08598 0.953649 -2.22237e-20)
(-6.31583 0.891716 1.97247e-20)
(-6.54563 0.857888 3.31645e-20)
(-6.77726 0.846795 -1.51872e-20)
(-7.01369 0.854269 1.31112e-20)
(-7.25791 0.87676 0)