/*--------------------------------*- C++ -*----------------------------------*\
  =========                 |
  \\      /  F ield         | OpenFOAM: The Open Source CFD Toolbox
   \\    /   O peration     | Website:  https://openfoam.org
    \\  /    A nd           | Version:  6
     \\/     M anipulation  |
\*---------------------------------------------------------------------------*/
FoamFile
{
    version     2.0;
    format      ascii;
    class       volSymmTensorField;
    location    "0.3";
    object      UPrime2Mean;
}
// * * * * * * * * * * * * * * * * * * * * * * * * * * * * * * * * * * * * * //

dimensions      [0 2 -2 0 0 0 0];

internalField   nonuniform List<symmTensor> 
12225
(
(0.0238713 -3.71021e-05 0 0.00366624 0 0)
(0.0144487 -0.000146095 0 0.00206304 0 0)
(0.0131453 -0.000190027 0 0.00148926 0 0)
(0.0135639 -0.000225427 0 0.00114705 0 0)
(0.0145152 -0.000263269 0 0.000916079 0 0)
(0.0166886 -0.000311919 0 0.000749324 0 0)
(0.0211207 -0.000450831 0 0.000628928 0 0)
(0.0281428 -0.000571783 0 0.000530906 0 0)
(0.0394037 -0.00101733 0 0.000475779 0 0)
(0.0542643 -0.00108741 0 0.000404843 0 0)
(0.078814 -0.00258814 0 0.000432747 0 0)
(0.10831 -0.00206424 0 0.00036686 0 0)
(0.164252 -0.00721024 0 0.000634291 0 0)
(0.225176 -0.0039537 0 0.000582985 0 0)
(0.363544 -0.022327 0 0.00198246 0 0)
(0.505163 -0.00858653 0 0.00223146 0 0)
(0.897601 -0.0812149 0 0.0110475 0 0)
(1.35549 -0.0190212 0 0.00739632 0 0)
(0.025902 0.000355643 0 0.00330993 0 0)
(0.0170937 0.000391664 0 0.00163466 0 0)
(0.0143632 0.000304895 0 0.0011461 0 0)
(0.0130953 0.000236726 0 0.000926652 0 0)
(0.0122452 0.000184224 0 0.000802847 0 0)
(0.0118849 7.74693e-05 0 0.000728935 0 0)
(0.0122573 -0.000123473 0 0.000679973 0 0)
(0.0136279 -0.00048245 0 0.00067524 0 0)
(0.016329 -0.000946881 0 0.000672353 0 0)
(0.0209611 -0.00178808 0 0.000772167 0 0)
(0.028235 -0.00277174 0 0.000848316 0 0)
(0.0400329 -0.00489767 0 0.0011883 0 0)
(0.0577721 -0.00728354 0 0.00149076 0 0)
(0.0874411 -0.0129899 0 0.00253581 0 0)
(0.131176 -0.0199658 0 0.00378063 0 0)
(0.211438 -0.036961 0 0.00735072 0 0)
(0.325735 -0.0641942 0 0.0137547 0 0)
(0.557603 -0.127975 0 0.0331981 0 0)
(0.0264005 0.000396117 0 0.00400504 0 0)
(0.0175745 0.000534225 0 0.00210671 0 0)
(0.0149316 0.000283034 0 0.00144289 0 0)
(0.0136683 6.50248e-05 0 0.00115778 0 0)
(0.0129017 -7.76786e-05 0 0.00101309 0 0)
(0.012725 -0.000221394 0 0.000940549 0 0)
(0.0132003 -0.000454885 0 0.00092077 0 0)
(0.0143724 -0.000834861 0 0.000945096 0 0)
(0.0164092 -0.00142401 0 0.00104415 0 0)
(0.0196069 -0.00227855 0 0.00122211 0 0)
(0.0244047 -0.00361702 0 0.0015633 0 0)
(0.0315086 -0.00560228 0 0.00210383 0 0)
(0.0419186 -0.00885336 0 0.00310719 0 0)
(0.0572942 -0.0138667 0 0.00477946 0 0)
(0.0800937 -0.0223752 0 0.00807838 0 0)
(0.11356 -0.0369769 0 0.0144411 0 0)
(0.161903 -0.0629394 0 0.0282184 0 0)
(0.218492 -0.115708 0 0.0701469 0 0)
(0.0255093 0.000450764 0 0.00465994 0 0)
(0.016389 0.000374349 0 0.0026097 0 0)
(0.0137818 0.000165998 0 0.00182663 0 0)
(0.012625 3.99938e-06 0 0.00150172 0 0)
(0.0119112 -0.000148223 0 0.00134709 0 0)
(0.0116862 -0.000361039 0 0.00127872 0 0)
(0.0120296 -0.000687711 0 0.00127176 0 0)
(0.0130428 -0.00118489 0 0.00133865 0 0)
(0.0149012 -0.00191631 0 0.00150508 0 0)
(0.0179143 -0.00300088 0 0.00181017 0 0)
(0.0224253 -0.00462771 0 0.00234555 0 0)
(0.0291153 -0.00707682 0 0.00320471 0 0)
(0.0386227 -0.0109205 0 0.0047361 0 0)
(0.0523293 -0.0167643 0 0.00725009 0 0)
(0.071128 -0.0264489 0 0.0121714 0 0)
(0.0966314 -0.0415509 0 0.0209896 0 0)
(0.127545 -0.0674743 0 0.0407286 0 0)
(0.158192 -0.105356 0 0.0785032 0 0)
(0.0271848 0.000220625 0 0.00493269 0 0)
(0.017456 0.000415716 0 0.00282589 0 0)
(0.0144008 0.000138736 0 0.00196772 0 0)
(0.0131827 -0.000107659 0 0.00163534 0 0)
(0.0124892 -0.000288879 0 0.00151337 0 0)
(0.0122364 -0.000505179 0 0.00150187 0 0)
(0.01252 -0.000848456 0 0.00156977 0 0)
(0.013456 -0.00140274 0 0.00173245 0 0)
(0.0152005 -0.0022526 0 0.00202785 0 0)
(0.0179636 -0.00352881 0 0.00252996 0 0)
(0.0220985 -0.00542707 0 0.00333769 0 0)
(0.0280996 -0.00829258 0 0.00465689 0 0)
(0.0367118 -0.0126134 0 0.00680646 0 0)
(0.0486542 -0.0192578 0 0.0104722 0 0)
(0.0648742 -0.029426 0 0.0168095 0 0)
(0.085075 -0.0451739 0 0.0285113 0 0)
(0.108441 -0.0683309 0 0.049456 0 0)
(0.129816 -0.0992817 0 0.0870239 0 0)
(0.0264039 0.000171033 0 0.00512398 0 0)
(0.0170125 1.91002e-05 0 0.00307712 0 0)
(0.0145953 -0.000149536 0 0.00215768 0 0)
(0.0136604 -0.000347185 0 0.00182814 0 0)
(0.0131223 -0.000570123 0 0.00172654 0 0)
(0.0130248 -0.000867361 0 0.00175427 0 0)
(0.0134341 -0.00130621 0 0.00188933 0 0)
(0.0144123 -0.00196737 0 0.00215006 0 0)
(0.0161032 -0.00295603 0 0.00259037 0 0)
(0.0187194 -0.00442011 0 0.00329629 0 0)
(0.0225808 -0.00659022 0 0.00441714 0 0)
(0.0280719 -0.00979138 0 0.00619137 0 0)
(0.0357163 -0.014544 0 0.00904743 0 0)
(0.0458985 -0.0215539 0 0.0137298 0 0)
(0.0590079 -0.031859 0 0.0215371 0 0)
(0.0744166 -0.0466837 0 0.0348186 0 0)
(0.0911945 -0.0667378 0 0.0566494 0 0)
(0.105873 -0.0914942 0 0.0920433 0 0)
(0.0256366 9.65797e-05 0 0.00530825 0 0)
(0.0169221 0.000179902 0 0.00340713 0 0)
(0.0147109 -8.43905e-05 0 0.00237301 0 0)
(0.0138856 -0.000388315 0 0.00199504 0 0)
(0.0133002 -0.0006864 0 0.00192435 0 0)
(0.0130257 -0.00107334 0 0.00203312 0 0)
(0.0132297 -0.00162586 0 0.00228113 0 0)
(0.0140424 -0.00241292 0 0.00268912 0 0)
(0.0155865 -0.00353808 0 0.00332314 0 0)
(0.0179971 -0.00516329 0 0.00430265 0 0)
(0.0214808 -0.00752397 0 0.0058067 0 0)
(0.0263008 -0.0109456 0 0.00813952 0 0)
(0.0327903 -0.0158774 0 0.0117697 0 0)
(0.0411296 -0.0229212 0 0.0175332 0 0)
(0.0513894 -0.032782 0 0.0266479 0 0)
(0.0629279 -0.0461323 0 0.0411905 0 0)
(0.0748905 -0.0630619 0 0.0634233 0 0)
(0.0850387 -0.0826324 0 0.0966243 0 0)
(0.0256215 -0.000303232 0 0.0061064 0 0)
(0.0165524 -8.42703e-05 0 0.00399988 0 0)
(0.0140548 -0.0002648 0 0.00287519 0 0)
(0.0131867 -0.000497497 0 0.00246695 0 0)
(0.0127186 -0.00070761 0 0.00239834 0 0)
(0.0125942 -0.00102093 0 0.00253879 0 0)
(0.0128483 -0.00154378 0 0.00285345 0 0)
(0.013537 -0.00234734 0 0.00337546 0 0)
(0.0147749 -0.00352334 0 0.00419086 0 0)
(0.0167117 -0.00521737 0 0.00544332 0 0)
(0.0195463 -0.00764663 0 0.00733995 0 0)
(0.0234798 -0.0111027 0 0.0102221 0 0)
(0.0287288 -0.0159622 0 0.0145863 0 0)
(0.0353234 -0.0226712 0 0.0212714 0 0)
(0.0431696 -0.0316709 0 0.0313658 0 0)
(0.0516423 -0.0432547 0 0.0466169 0 0)
(0.0600583 -0.0571784 0 0.0686534 0 0)
(0.0669444 -0.0724259 0 0.099845 0 0)
(0.0270577 0.000105535 0 0.00625231 0 0)
(0.0177822 0.000126418 0 0.00427204 0 0)
(0.0152172 -0.000131504 0 0.00303379 0 0)
(0.0141211 -0.000494253 0 0.00259441 0 0)
(0.0134323 -0.000850713 0 0.0025759 0 0)
(0.0132104 -0.00127411 0 0.00281015 0 0)
(0.0134559 -0.00186546 0 0.00325759 0 0)
(0.0141286 -0.00271978 0 0.00396129 0 0)
(0.015254 -0.00394842 0 0.00502261 0 0)
(0.0169217 -0.00570202 0 0.00660817 0 0)
(0.0192815 -0.00818563 0 0.00895376 0 0)
(0.0224704 -0.0116574 0 0.0124319 0 0)
(0.0266006 -0.016413 0 0.0175499 0 0)
(0.0316094 -0.0227448 0 0.0251055 0 0)
(0.0373032 -0.0308702 0 0.0360447 0 0)
(0.0431796 -0.0407957 0 0.0517831 0 0)
(0.0487247 -0.0521009 0 0.0734772 0 0)
(0.0530397 -0.0638077 0 0.102758 0 0)
(0.0263089 -3.51362e-05 0 0.00651845 0 0)
(0.0170527 -4.31389e-05 0 0.00463668 0 0)
(0.0146945 -0.000272119 0 0.00345079 0 0)
(0.0139778 -0.000507404 0 0.00304517 0 0)
(0.0135692 -0.000737952 0 0.00307464 0 0)
(0.013405 -0.0010743 0 0.00337316 0 0)
(0.0135046 -0.00160976 0 0.00390977 0 0)
(0.0138837 -0.00242791 0 0.00474889 0 0)
(0.0146177 -0.0036301 0 0.00601566 0 0)
(0.0158134 -0.0053461 0 0.00789609 0 0)
(0.0175911 -0.00773829 0 0.0106357 0 0)
(0.0200086 -0.0109947 0 0.0146075 0 0)
(0.0230799 -0.0153173 0 0.020293 0 0)
(0.0266576 -0.0208684 0 0.0284148 0 0)
(0.0305297 -0.0277122 0 0.0397531 0 0)
(0.0342594 -0.035718 0 0.0554484 0 0)
(0.0375402 -0.0443962 0 0.0762592 0 0)
(0.039786 -0.0529042 0 0.10334 0 0)
(0.0266444 -8.7998e-05 0 0.00696626 0 0)
(0.0175268 -9.08428e-06 0 0.00527237 0 0)
(0.0153358 -0.000498043 0 0.00406979 0 0)
(0.0148244 -0.00100478 0 0.00363547 0 0)
(0.0144995 -0.00138955 0 0.00369784 0 0)
(0.0143406 -0.00180928 0 0.00410088 0 0)
(0.0145079 -0.00242563 0 0.00480656 0 0)
(0.0150568 -0.00334717 0 0.00587213 0 0)
(0.0159644 -0.00466173 0 0.00742402 0 0)
(0.0171859 -0.00646482 0 0.00966029 0 0)
(0.0187227 -0.00887619 0 0.0128377 0 0)
(0.0205722 -0.0120181 0 0.0173256 0 0)
(0.0227595 -0.0160056 0 0.0235639 0 0)
(0.025156 -0.0208662 0 0.0321846 0 0)
(0.027642 -0.0265449 0 0.0437882 0 0)
(0.0298776 -0.0327716 0 0.059267 0 0)
(0.0317712 -0.0390794 0 0.0790436 0 0)
(0.0329195 -0.0447114 0 0.103977 0 0)
(0.0248641 8.64157e-05 0 0.00700748 0 0)
(0.0165757 -0.000147681 0 0.0053284 0 0)
(0.0144868 -0.000393692 0 0.00406177 0 0)
(0.0136957 -0.000669675 0 0.00360499 0 0)
(0.013123 -0.000944177 0 0.00370945 0 0)
(0.0127599 -0.00132958 0 0.00418527 0 0)
(0.0126936 -0.00192191 0 0.00497615 0 0)
(0.0129725 -0.00278905 0 0.00615134 0 0)
(0.0135925 -0.00399729 0 0.00785683 0 0)
(0.0145041 -0.005623 0 0.010303 0 0)
(0.0156718 -0.00776039 0 0.013741 0 0)
(0.0170442 -0.0104985 0 0.0185188 0 0)
(0.0186074 -0.0139028 0 0.0250207 0 0)
(0.0202494 -0.017946 0 0.0337938 0 0)
(0.0218793 -0.0225097 0 0.0452861 0 0)
(0.0232918 -0.027318 0 0.0602106 0 0)
(0.0244462 -0.0319169 0 0.0787481 0 0)
(0.0251764 -0.0357275 0 0.101591 0 0)
(0.0258157 -0.00050752 0 0.00786606 0 0)
(0.0167757 -0.000862153 0 0.00615771 0 0)
(0.0144531 -0.00128873 0 0.00483557 0 0)
(0.0137174 -0.00165208 0 0.00438501 0 0)
(0.0132423 -0.00187872 0 0.00452244 0 0)
(0.0128969 -0.00211805 0 0.0050866 0 0)
(0.0127211 -0.0025333 0 0.00603087 0 0)
(0.0127807 -0.00323036 0 0.00740896 0 0)
(0.0131221 -0.00426773 0 0.00935325 0 0)
(0.0137387 -0.00568506 0 0.0120699 0 0)
(0.0145822 -0.00752447 0 0.0157999 0 0)
(0.0155662 -0.00982209 0 0.0208657 0 0)
(0.0166011 -0.012583 0 0.0275947 0 0)
(0.0175816 -0.0157297 0 0.036443 0 0)
(0.018393 -0.019095 0 0.0477308 0 0)
(0.0190062 -0.022421 0 0.0620143 0 0)
(0.019387 -0.0252697 0 0.0793144 0 0)
(0.0196276 -0.0272325 0 0.100186 0 0)
(0.0276272 -0.000666857 0 0.0081625 0 0)
(0.0185686 -0.00107656 0 0.00672974 0 0)
(0.0160134 -0.00131602 0 0.00533123 0 0)
(0.0151252 -0.00152765 0 0.00484579 0 0)
(0.0146024 -0.00169374 0 0.00500634 0 0)
(0.0142543 -0.00192001 0 0.00563816 0 0)
(0.0140772 -0.00232981 0 0.00669923 0 0)
(0.0140562 -0.00299333 0 0.00824184 0 0)
(0.0141856 -0.00393194 0 0.010384 0 0)
(0.0144551 -0.00514067 0 0.0133101 0 0)
(0.0148267 -0.0066147 0 0.0172325 0 0)
(0.0152315 -0.00834332 0 0.0224329 0 0)
(0.0155893 -0.0102944 0 0.0291747 0 0)
(0.0158301 -0.012364 0 0.0378295 0 0)
(0.0158858 -0.0143849 0 0.0485925 0 0)
(0.0157681 -0.0161155 0 0.0619055 0 0)
(0.0155348 -0.0171942 0 0.077649 0 0)
(0.0153036 -0.0173091 0 0.0963007 0 0)
(0.0267153 0.000444549 0 0.00873592 0 0)
(0.0165847 -0.000151209 0 0.00731751 0 0)
(0.0137236 -0.000533411 0 0.0058576 0 0)
(0.0127937 -0.000772533 0 0.00539547 0 0)
(0.0122377 -0.000921228 0 0.0056266 0 0)
(0.0117825 -0.00108014 0 0.00634718 0 0)
(0.0114409 -0.00134441 0 0.00749431 0 0)
(0.0112474 -0.00176794 0 0.00912343 0 0)
(0.0112037 -0.00236493 0 0.0113652 0 0)
(0.0112624 -0.00312181 0 0.0144031 0 0)
(0.0113548 -0.00401838 0 0.0184203 0 0)
(0.0114262 -0.00501099 0 0.0236426 0 0)
(0.0114481 -0.00603806 0 0.0302502 0 0)
(0.0114151 -0.00696693 0 0.0385171 0 0)
(0.0113341 -0.00764519 0 0.0485195 0 0)
(0.0112532 -0.00785602 0 0.0605882 0 0)
(0.0113076 -0.00734529 0 0.0745078 0 0)
(0.0115403 -0.00586618 0 0.0906812 0 0)
(0.025233 0.00030984 0 0.00967846 0 0)
(0.0158338 -0.000151378 0 0.00856057 0 0)
(0.0132072 -0.000623809 0 0.00704033 0 0)
(0.0123975 -0.000898331 0 0.00645541 0 0)
(0.0119498 -0.000935057 0 0.00666158 0 0)
(0.0115108 -0.000894664 0 0.00745753 0 0)
(0.0110874 -0.000943332 0 0.00872269 0 0)
(0.0107423 -0.00115247 0 0.0104703 0 0)
(0.010501 -0.00149358 0 0.012806 0 0)
(0.0103348 -0.00188375 0 0.0158901 0 0)
(0.0102056 -0.00224712 0 0.0198704 0 0)
(0.01009 -0.00251265 0 0.0249137 0 0)
(0.00999989 -0.00261994 0 0.0311228 0 0)
(0.00996202 -0.00246127 0 0.0386807 0 0)
(0.0100003 -0.00192928 0 0.047577 0 0)
(0.0101933 -0.00086036 0 0.058063 0 0)
(0.0106389 0.000911024 0 0.0698723 0 0)
(0.0114527 0.00356536 0 0.0833375 0 0)
(0.0279304 0.000146826 0 0.0099007 0 0)
(0.0183653 -0.000367859 0 0.00897767 0 0)
(0.0149086 -0.000935712 0 0.00722123 0 0)
(0.0132893 -0.00105165 0 0.00652801 0 0)
(0.0123115 -0.000855423 0 0.00669493 0 0)
(0.0116712 -0.000591829 0 0.0074651 0 0)
(0.0112205 -0.000421022 0 0.00871109 0 0)
(0.0108797 -0.000365222 0 0.0104352 0 0)
(0.0106189 -0.000354246 0 0.0127153 0 0)
(0.0104068 -0.000290857 0 0.0156704 0 0)
(0.0102149 -0.000101125 0 0.0194002 0 0)
(0.0100542 0.000288717 0 0.0240162 0 0)
(0.00997331 0.000936162 0 0.0295638 0 0)
(0.0100442 0.00195203 0 0.0361567 0 0)
(0.0103195 0.00340952 0 0.0437193 0 0)
(0.0108837 0.00545211 0 0.0524389 0 0)
(0.011833 0.00813747 0 0.0620262 0 0)
(0.0132131 0.0116376 0 0.0727705 0 0)
(0.0257639 0.000526947 0 0.0103712 0 0)
(0.0160135 -0.00026102 0 0.00984144 0 0)
(0.0127423 -0.000833411 0 0.00837392 0 0)
(0.0112284 -0.000944168 0 0.00775557 0 0)
(0.0102481 -0.000806225 0 0.00790635 0 0)
(0.00954509 -0.00059556 0 0.0086363 0 0)
(0.00904346 -0.000400048 0 0.00979691 0 0)
(0.00872739 -0.000216951 0 0.0113564 0 0)
(0.00859315 2.14936e-05 0 0.0133667 0 0)
(0.00859639 0.000403015 0 0.0159166 0 0)
(0.00867861 0.000993145 0 0.0190678 0 0)
(0.00882855 0.00185058 0 0.0228872 0 0)
(0.00908641 0.00301462 0 0.0273776 0 0)
(0.00953278 0.00456341 0 0.0326049 0 0)
(0.0102294 0.0065434 0 0.0384702 0 0)
(0.0112875 0.00905106 0 0.0451141 0 0)
(0.0127656 0.0121096 0 0.0522843 0 0)
(0.0147734 0.0158286 0 0.0601846 0 0)
(0.0253842 9.25571e-05 0 0.0104172 0 0)
(0.0165806 0.000157895 0 0.0095775 0 0)
(0.0133042 -0.00012062 0 0.0078805 0 0)
(0.011362 -4.99576e-05 0 0.0070519 0 0)
(0.0101921 0.00029638 0 0.0070129 0 0)
(0.00948465 0.000681249 0 0.00754898 0 0)
(0.00904914 0.00102806 0 0.00850163 0 0)
(0.00884296 0.0013987 0 0.00980187 0 0)
(0.00887769 0.00190226 0 0.0114406 0 0)
(0.00912173 0.00263131 0 0.0134471 0 0)
(0.00951675 0.0036338 0 0.0158477 0 0)
(0.0100502 0.00493922 0 0.0186809 0 0)
(0.0107569 0.00655695 0 0.021945 0 0)
(0.0117173 0.00852552 0 0.0256758 0 0)
(0.0129842 0.0108565 0 0.0297876 0 0)
(0.0146535 0.0136009 0 0.0343797 0 0)
(0.0167694 0.0167515 0 0.0392603 0 0)
(0.0194007 0.0203663 0 0.0445588 0 0)
(0.0254454 0.000373519 0 0.0107319 0 0)
(0.0155223 0.000773161 0 0.00912486 0 0)
(0.0123966 0.000449233 0 0.00700429 0 0)
(0.0111213 0.000392015 0 0.00617823 0 0)
(0.0105231 0.000585286 0 0.00611502 0 0)
(0.010302 0.000865359 0 0.00649925 0 0)
(0.0102087 0.00120869 0 0.00719754 0 0)
(0.0101511 0.00167984 0 0.0081542 0 0)
(0.0101941 0.00234904 0 0.0093508 0 0)
(0.0104264 0.00326296 0 0.0107975 0 0)
(0.0108964 0.00443913 0 0.0125045 0 0)
(0.0116427 0.00588894 0 0.0144865 0 0)
(0.0126981 0.00761082 0 0.0167302 0 0)
(0.0141173 0.00962602 0 0.0192542 0 0)
(0.0159116 0.0119313 0 0.0219954 0 0)
(0.0181498 0.014553 0 0.0250193 0 0)
(0.0208346 0.0174761 0 0.0282082 0 0)
(0.0240132 0.0207371 0 0.0316269 0 0)
(0.0248879 0.000451746 0 0.0101147 0 0)
(0.0151921 0.000409022 0 0.00866771 0 0)
(0.0126242 0.000151402 0 0.00666424 0 0)
(0.0115855 4.71563e-05 0 0.00581067 0 0)
(0.0109414 0.000118731 0 0.00566909 0 0)
(0.010565 0.000330703 0 0.00593057 0 0)
(0.0103732 0.000683187 0 0.00642404 0 0)
(0.0103486 0.00120738 0 0.00707638 0 0)
(0.0105404 0.00192327 0 0.00788181 0 0)
(0.0109826 0.00282636 0 0.00886622 0 0)
(0.0116846 0.00390731 0 0.0100467 0 0)
(0.0126706 0.00518144 0 0.0114287 0 0)
(0.0139808 0.00667027 0 0.0129914 0 0)
(0.0156718 0.00841086 0 0.0147354 0 0)
(0.0177592 0.0104067 0 0.0166079 0 0)
(0.0202935 0.0126686 0 0.0186654 0 0)
(0.0232708 0.0151743 0 0.0208233 0 0)
(0.0267037 0.0179295 0 0.0231172 0 0)
(0.0260501 0.000645823 0 0.0096384 0 0)
(0.0165833 0.000840104 0 0.00828161 0 0)
(0.0139607 0.000688892 0 0.00637041 0 0)
(0.0127644 0.000725676 0 0.00546371 0 0)
(0.0120252 0.000924353 0 0.00518246 0 0)
(0.0116922 0.00120327 0 0.00524486 0 0)
(0.0116289 0.00156263 0 0.00549915 0 0)
(0.01174 0.0020437 0 0.00588204 0 0)
(0.0120406 0.00267662 0 0.006384 0 0)
(0.0125895 0.00347335 0 0.00701935 0 0)
(0.0134321 0.00443875 0 0.00779679 0 0)
(0.0146097 0.00558486 0 0.00871658 0 0)
(0.0161538 0.00691938 0 0.00976066 0 0)
(0.0181081 0.00846255 0 0.0109254 0 0)
(0.0204786 0.0102122 0 0.012171 0 0)
(0.0233055 0.0121737 0 0.0135386 0 0)
(0.0266014 0.0143379 0 0.0149729 0 0)
(0.0303329 0.0166924 0 0.0164814 0 0)
(0.0261758 0.000536177 0 0.00937617 0 0)
(0.016775 0.000424714 0 0.00740513 0 0)
(0.0142279 0.000258068 0 0.00550504 0 0)
(0.013207 0.000251771 0 0.00468222 0 0)
(0.0125466 0.000368132 0 0.00441439 0 0)
(0.0121616 0.00058661 0 0.00442528 0 0)
(0.0119917 0.000912463 0 0.00458039 0 0)
(0.0120145 0.00135642 0 0.00482591 0 0)
(0.0122863 0.00192135 0 0.00515566 0 0)
(0.0128674 0.00260393 0 0.00557913 0 0)
(0.0137793 0.00340491 0 0.00609826 0 0)
(0.0150331 0.00434125 0 0.00671048 0 0)
(0.0166477 0.0054327 0 0.00740549 0 0)
(0.0186576 0.00670371 0 0.00818024 0 0)
(0.0210695 0.00815585 0 0.00900612 0 0)
(0.0239166 0.0097864 0 0.00991905 0 0)
(0.0272122 0.0115855 0 0.0108783 0 0)
(0.0309155 0.0135293 0 0.0118722 0 0)
(0.0267984 0.000315705 0 0.00792828 0 0)
(0.017813 0.000309439 0 0.00603933 0 0)
(0.0154273 0.000235589 0 0.00442546 0 0)
(0.014212 0.000339272 0 0.00369488 0 0)
(0.0133762 0.000534935 0 0.00338755 0 0)
(0.012967 0.000806403 0 0.00330058 0 0)
(0.0129281 0.00115612 0 0.00334471 0 0)
(0.0132131 0.00158917 0 0.00347281 0 0)
(0.0138382 0.0021068 0 0.00366709 0 0)
(0.0148109 0.00271032 0 0.00392651 0 0)
(0.0161013 0.00340689 0 0.00425091 0 0)
(0.0176858 0.00421434 0 0.00463714 0 0)
(0.0195792 0.00514905 0 0.00507809 0 0)
(0.0218339 0.0062281 0 0.00557066 0 0)
(0.0244801 0.0074511 0 0.00609417 0 0)
(0.0275822 0.00881632 0 0.0066741 0 0)
(0.0311665 0.010314 0 0.00728437 0 0)
(0.0351794 0.0119282 0 0.00791679 0 0)
(0.02551 4.64915e-05 0 0.00735529 0 0)
(0.016994 0.000205327 0 0.00539787 0 0)
(0.0150386 0.000195727 0 0.00393587 0 0)
(0.0141653 0.000261025 0 0.00324531 0 0)
(0.0134328 0.00041201 0 0.00298381 0 0)
(0.0129186 0.000630503 0 0.00293206 0 0)
(0.0126909 0.000877564 0 0.00296802 0 0)
(0.0127808 0.00115139 0 0.0030394 0 0)
(0.01323 0.00148368 0 0.00313803 0 0)
(0.0140534 0.0019116 0 0.00327415 0 0)
(0.0152238 0.00245799 0 0.00345521 0 0)
(0.0167171 0.00312945 0 0.00368032 0 0)
(0.0185412 0.00391747 0 0.003944 0 0)
(0.0207424 0.004816 0 0.00424415 0 0)
(0.0233321 0.00581087 0 0.00456479 0 0)
(0.0263715 0.00690231 0 0.00492709 0 0)
(0.0298652 0.00808735 0 0.00531198 0 0)
(0.0337786 0.00936205 0 0.00570151 0 0)
(0.0263508 0.000118262 0 0.00662181 0 0)
(0.0177774 4.8005e-05 0 0.00436609 0 0)
(0.0153311 1.26788e-05 0 0.00312714 0 0)
(0.0141658 7.27863e-05 0 0.00260786 0 0)
(0.0134221 0.000179731 0 0.00238726 0 0)
(0.0131079 0.00032554 0 0.00230269 0 0)
(0.0131414 0.00049932 0 0.0022717 0 0)
(0.0134024 0.00070568 0 0.00226495 0 0)
(0.0138743 0.000964039 0 0.00228279 0 0)
(0.0146089 0.00129124 0 0.00233266 0 0)
(0.0156542 0.00169461 0 0.00241638 0 0)
(0.0170459 0.00217911 0 0.00252975 0 0)
(0.0188131 0.0027474 0 0.00266752 0 0)
(0.0209924 0.00340454 0 0.00282847 0 0)
(0.0235749 0.00414839 0 0.00300258 0 0)
(0.0265964 0.00497813 0 0.00320561 0 0)
(0.0300617 0.00589069 0 0.00342509 0 0)
(0.0339104 0.00687716 0 0.00364832 0 0)
(0.0256566 -0.000213277 0 0.0059299 0 0)
(0.0170163 -0.00022547 0 0.00389144 0 0)
(0.0149897 -8.86857e-05 0 0.00279811 0 0)
(0.014115 6.78839e-05 0 0.00230511 0 0)
(0.0134872 0.000187993 0 0.00208335 0 0)
(0.0131823 0.00030445 0 0.00198597 0 0)
(0.0132089 0.000435526 0 0.0019317 0 0)
(0.0135029 0.00059504 0 0.00189168 0 0)
(0.0140481 0.000799513 0 0.00186605 0 0)
(0.0148667 0.00106079 0 0.00186169 0 0)
(0.0159883 0.00138408 0 0.00188195 0 0)
(0.0174547 0.00177261 0 0.00192536 0 0)
(0.019318 0.0022268 0 0.00198871 0 0)
(0.021629 0.00274693 0 0.00206923 0 0)
(0.0243869 0.00332648 0 0.00215803 0 0)
(0.0276188 0.00396058 0 0.00226804 0 0)
(0.0313187 0.00464388 0 0.00238945 0 0)
(0.0354154 0.0053739 0 0.00250945 0 0)
(0.0275473 -0.000153124 0 0.00507816 0 0)
(0.0185806 -0.000139587 0 0.00294993 0 0)
(0.0161378 -4.45986e-05 0 0.00209493 0 0)
(0.0149518 5.4616e-05 0 0.00174891 0 0)
(0.0140675 0.0001248 0 0.00158106 0 0)
(0.0135442 0.000162585 0 0.00147893 0 0)
(0.0134285 0.000204652 0 0.00139771 0 0)
(0.01366 0.000289982 0 0.00132832 0 0)
(0.0141886 0.000428114 0 0.00127319 0 0)
(0.0149982 0.000605503 0 0.00123459 0 0)
(0.0160963 0.000809832 0 0.00121251 0 0)
(0.0175216 0.00104292 0 0.00120517 0 0)
(0.0193313 0.00131414 0 0.00121153 0 0)
(0.02158 0.00163262 0 0.00123127 0 0)
(0.0242663 0.00200021 0 0.00126051 0 0)
(0.0274194 0.00241532 0 0.00130794 0 0)
(0.0310306 0.00287582 0 0.00136741 0 0)
(0.0350174 0.0033813 0 0.00143014 0 0)
(0.0268458 -0.00019166 0 0.00395397 0 0)
(0.0193368 -0.000463823 0 0.00224208 0 0)
(0.017159 -0.000449659 0 0.00166344 0 0)
(0.0158233 -0.000358297 0 0.00140781 0 0)
(0.0149629 -0.000317195 0 0.00126565 0 0)
(0.0146297 -0.000333406 0 0.00116991 0 0)
(0.0146249 -0.000359308 0 0.00109267 0 0)
(0.0147913 -0.000351227 0 0.00102794 0 0)
(0.0151565 -0.000293914 0 0.00097598 0 0)
(0.0158384 -0.000193943 0 0.000935848 0 0)
(0.0169292 -6.05098e-05 0 0.000905309 0 0)
(0.0184704 0.000105872 0 0.000882396 0 0)
(0.0204706 0.000311171 0 0.000866604 0 0)
(0.0229477 0.000560885 0 0.000857357 0 0)
(0.0258795 0.000855517 0 0.000852946 0 0)
(0.0293313 0.00119016 0 0.000859344 0 0)
(0.0333277 0.0015651 0 0.000870623 0 0)
(0.0378334 0.00196976 0 0.000881181 0 0)
(0.0256385 8.13994e-05 0 0.00397541 0 0)
(0.0170909 0.000178573 0 0.00224727 0 0)
(0.0151757 0.00014134 0 0.00168539 0 0)
(0.0141351 0.000148103 0 0.00138693 0 0)
(0.0131931 0.000116705 0 0.00119072 0 0)
(0.0126461 8.06721e-05 0 0.00104706 0 0)
(0.0126462 7.5906e-05 0 0.000936557 0 0)
(0.0131487 9.70572e-05 0 0.000849289 0 0)
(0.0140944 0.000121452 0 0.000778861 0 0)
(0.015466 0.00013725 0 0.000720924 0 0)
(0.0172886 0.000150926 0 0.000672332 0 0)
(0.0196427 0.000177157 0 0.000630861 0 0)
(0.0226403 0.000228399 0 0.000595542 0 0)
(0.0264104 0.000309016 0 0.00056465 0 0)
(0.0310321 0.000419066 0 0.000536409 0 0)
(0.0366425 0.000551916 0 0.000516448 0 0)
(0.0432395 0.000704654 0 0.000497603 0 0)
(0.0508578 0.000872696 0 0.000471825 0 0)
(0.0126967 -0.00821462 6.81542e-23 0.0130507 -7.30049e-23 4.07162e-38)
(0.06948 -0.0114004 -1.49e-22 0.0157214 2.02699e-23 4.01417e-38)
(0.158514 -0.0105775 0 0.0256811 0 0)
(0.260303 -0.00766158 0 0.0452961 0 0)
(0.341888 -0.0109111 0 0.0682377 0 0)
(0.435296 -0.0326433 1.96691e-22 0.092356 3.38607e-23 3.78091e-38)
(0.573481 -0.0757684 0 0.112873 0 0)
(0.787396 -0.133621 0 0.122726 0 0)
(1.09251 -0.192716 0 0.121245 0 0)
(1.48732 -0.243369 0 0.112397 0 0)
(1.96041 -0.28053 -9.6446e-23 0.0989434 3.55167e-23 3.50103e-38)
(2.4885 -0.297536 0 0.0813957 0 0)
(3.03745 -0.291598 0 0.0647263 0 0)
(3.57316 -0.269204 0 0.0516533 0 0)
(4.07056 -0.235891 0 0.0419598 0 0)
(4.50995 -0.193912 8.57724e-23 0.0352413 8.03328e-23 3.23534e-38)
(4.87626 -0.144742 0 0.030635 0 0)
(5.15931 -0.0909531 0 0.0283231 0 0)
(5.35147 -0.039036 0 0.0291574 0 0)
(5.45555 0.00528123 0 0.0323632 0 0)
(5.48505 0.0384907 0 0.0375999 0 0)
(5.45878 0.0619068 0 0.0434773 0 0)
(5.38776 0.0817344 0 0.0505701 0 0)
(5.27189 0.0993195 -7.66444e-22 0.0602649 1.69946e-22 2.83986e-38)
(5.1337 0.104565 9.98684e-22 0.0680876 -1.71391e-22 2.79289e-38)
(4.98602 0.0978264 -1.24553e-21 0.0812219 1.62862e-22 2.74645e-38)
(4.87272 0.0840338 -1.5023e-21 0.101703 1.46347e-22 2.70053e-38)
(4.79732 0.0504196 0 0.113274 0 0)
(4.78889 0.0218567 0 0.117744 0 0)
(4.83872 -0.0234291 2.2467e-21 0.117761 -8.50704e-23 2.56588e-38)
(4.97962 -0.0925821 2.51389e-21 0.122286 -1.27266e-22 2.52202e-38)
(5.23137 -0.152954 0 0.115751 0 0)
(5.5831 -0.200447 0 0.117021 0 0)
(6.02259 -0.237137 3.32401e-21 0.11549 -6.61262e-23 2.39352e-38)
(6.52593 -0.269969 0 0.122861 0 0)
(7.07597 -0.282711 0 0.121567 0 0)
(7.67181 -0.317956 -4.28474e-21 0.133722 1.30394e-22 2.26973e-38)
(8.32375 -0.351541 0 0.138311 0 0)
(9.02376 -0.381177 -5.04328e-21 0.147635 1.3623e-22 2.18983e-38)
(9.75983 -0.401021 -1.08866e-20 0.138429 2.97501e-22 8.60265e-38)
(10.5309 -0.413599 0 0.136715 0 0)
(11.342 -0.425332 0 0.126956 0 0)
(12.2051 -0.450847 0 0.106982 0 0)
(13.1063 -0.458837 0 0.101814 0 0)
(13.9905 -0.441802 0 0.100222 0 0)
(14.8828 -0.431724 -1.56301e-20 0.112209 3.38375e-22 7.70601e-38)
(15.707 -0.43126 -1.62565e-20 0.118477 3.06353e-22 7.56376e-38)
(16.5175 -0.422637 -1.67914e-20 0.119267 2.81472e-22 7.42356e-38)
(17.2302 -0.395652 0 0.123071 0 0)
(17.8288 -0.348069 1.77868e-20 0.125263 -3.47366e-22 7.14911e-38)
(18.3873 -0.350771 0 0.119579 0 0)
(18.975 -0.336154 -1.85026e-20 0.0974751 2.80777e-22 6.88267e-38)
(19.4873 -0.329357 -1.88043e-20 0.0968002 2.96495e-22 6.75244e-38)
(19.9618 -0.28219 0 0.0890298 0 0)
(20.2779 -0.276783 0 0.106208 0 0)
(20.5834 -0.240764 0 0.117608 0 0)
(20.8158 -0.252109 -1.99538e-20 0.133401 1.65293e-22 6.25065e-38)
(21.1031 -0.262096 0 0.118734 0 0)
(21.4508 -0.274571 0 0.121175 0 0)
(21.8406 -0.279269 0 0.11247 0 0)
(22.2456 -0.231996 0 0.111403 0 0)
(22.5713 -0.221268 0 0.12084 0 0)
(22.938 -0.243033 0 0.116414 0 0)
(23.3763 -0.267567 0 0.11127 0 0)
(23.9606 -0.301987 0 0.109967 0 0)
(24.5455 -0.292694 2.38243e-20 0.106614 -3.29549e-22 5.22952e-38)
(25.1089 -0.282447 0 0.099415 0 0)
(25.6111 -0.263546 0 0.0900347 0 0)
(26.0516 -0.257434 -2.52745e-20 0.0863947 3.78924e-22 4.92072e-38)
(26.3436 -0.230018 -2.56941e-20 0.0761641 3.51406e-22 4.82117e-38)
(26.5518 -0.218871 0 0.0663304 0 0)
(26.6918 -0.13394 2.63079e-20 0.0627983 -2.7914e-22 4.6269e-38)
(26.5625 -0.0685716 -2.63103e-20 0.0895837 1.92879e-22 4.53213e-38)
(26.394 -0.0526534 0 0.100486 0 0)
(26.2076 -0.0754027 2.5903e-20 0.108433 -8.88972e-23 4.34723e-38)
(26.036 -0.120469 0 0.113636 0 0)
(26.0229 -0.171788 0 0.110681 0 0)
(26.0135 -0.175422 -2.54152e-20 0.118386 1.70658e-22 4.08129e-38)
(26.0723 -0.206046 0 0.111337 0 0)
(26.2137 -0.262504 2.50821e-20 0.0984045 -1.57121e-22 3.91144e-38)
(26.6284 -0.266519 0 0.0826055 0 0)
(26.9741 -0.288256 -2.51118e-20 0.0792147 2.17569e-22 3.74739e-38)
(27.4554 -0.220477 -2.51403e-20 0.0715348 2.17957e-22 3.66749e-38)
(27.4648 -0.108722 -2.5169e-20 0.0853375 2.11234e-22 3.58896e-38)
(27.5646 -0.107155 -5.04025e-20 0.0774615 4.27077e-22 1.40473e-37)
(27.7518 -0.0993559 5.04911e-20 0.0666296 -4.29898e-22 1.37441e-37)
(27.9354 -0.100324 0 0.058086 0 0)
(28.0706 -0.0948489 0 0.0523003 0 0)
(28.1716 -0.0987798 0 0.0451722 0 0)
(28.2671 -0.0863554 5.05196e-20 0.0379515 -3.61638e-22 1.25846e-37)
(28.2059 -0.0545302 5.02707e-20 0.0433735 -3.22241e-22 1.23073e-37)
(27.9717 -0.0204161 -4.98727e-20 0.0491986 4.18887e-22 1.20349e-37)
(27.7865 -0.00109046 0 0.0598845 0 0)
(27.274 0.0287713 4.84101e-20 0.0800098 -2.56309e-22 1.15042e-37)
(26.9827 -0.0558005 4.70474e-20 0.0895067 -2.30953e-22 1.12459e-37)
(27.045 -0.0915739 4.5861e-20 0.0765007 -2.63548e-22 1.09923e-37)
(27.2363 -0.0825609 0 0.0661121 0 0)
(27.3444 -0.0327697 0 0.0597393 0 0)
(27.2823 0.0014057 0 0.0562685 0 0)
(26.9897 0.0420136 4.25325e-20 0.057822 -1.83273e-22 1.00232e-37)
(26.6818 0.0309192 0 0.0462486 0 0)
(26.3554 0.0931209 0 0.0486578 0 0)
(25.7456 0.0796577 -3.93464e-20 0.0808316 1.90138e-22 9.34184e-38)
(25.2949 0.0585769 0 0.0760356 0 0)
(24.9462 0.0204966 0 0.0720296 0 0)
(24.7279 0.0430923 -3.65695e-20 0.0724875 1.773e-22 8.69748e-38)
(24.4279 -0.0300217 0 0.0895282 0 0)
(24.4982 -0.0918209 0 0.0807214 0 0)
(24.7619 -0.114614 3.56767e-20 0.0759449 -3.30727e-22 8.08874e-38)
(25.1627 -0.122154 3.6259e-20 0.0737618 -3.79334e-22 7.89352e-38)
(25.6165 -0.127426 0 0.0677933 0 0)
(26.0972 -0.123004 -3.76834e-20 0.0595306 4.2197e-22 7.51415e-38)
(26.543 -0.109183 0 0.0513222 0 0)
(26.9011 -0.0829376 3.85814e-20 0.0446193 -3.25013e-22 7.14894e-38)
(27.1107 -0.0483689 0 0.0397619 0 0)
(27.152 -0.0100455 3.82093e-20 0.0362418 -2.6334e-22 6.79727e-38)
(27.015 0.026659 3.75323e-20 0.0340405 -2.13249e-22 6.6264e-38)
(26.7121 0.0585873 0 0.0325987 0 0)
(26.264 0.0833353 0 0.0319221 0 0)
(25.7041 0.097608 0 0.0306799 0 0)
(25.0703 0.104022 0 0.0328996 0 0)
(24.4969 0.0928062 0 0.0302688 0 0)
(23.9587 0.0984714 0 0.0380055 0 0)
(23.5063 0.0464737 0 0.0579635 0 0)
(23.4036 -0.00723392 2.76972e-20 0.0499894 -1.76254e-22 5.37274e-38)
(23.4331 -0.0302675 -2.70711e-20 0.0431741 1.84699e-22 5.22966e-38)
(23.6048 -0.0494197 0 0.038797 0 0)
(23.8279 -0.0641083 0 0.0348497 0 0)
(24.1134 -0.0625231 0 0.0287978 0 0)
(24.3205 -0.0378847 0 0.0263118 0 0)
(24.3791 -0.0111364 -5.36925e-20 0.0263684 6.03325e-22 1.82277e-37)
(24.2039 0.0113048 0 0.0263011 0 0)
(23.9779 0.0354987 5.31023e-20 0.0268396 -2.40247e-22 1.72257e-37)
(23.7961 -0.0149393 -5.15951e-20 0.0593144 1.12669e-22 1.67395e-37)
(24.4939 -0.183041 0 0.0839135 0 0)
(25.5701 -0.225296 0 0.0676886 0 0)
(26.8015 -0.20709 0 0.0555732 0 0)
(28.0091 -0.218508 5.53756e-20 0.0619475 -8.4842e-22 1.48938e-37)
(29.3404 -0.19259 5.79732e-20 0.0441266 -7.72895e-22 1.4457e-37)
(30.2074 -0.106515 0 0.0311612 0 0)
(30.7257 -0.0357668 6.12659e-20 0.026202 -4.97535e-22 1.36114e-37)
(30.7574 0.0273483 6.13762e-20 0.023764 -3.6472e-22 1.3202e-37)
(30.5023 0.0711661 -6.06433e-20 0.0229534 3.17362e-22 1.28011e-37)
(29.9489 0.102845 0 0.0281128 0 0)
(29.2954 0.0990593 0 0.0358163 0 0)
(28.6608 0.096807 -5.30976e-20 0.0353746 1.10041e-22 1.16478e-37)
(27.9034 0.120122 0 0.0314573 0 0)
(26.9748 0.150324 0 0.0294248 0 0)
(25.8474 0.177255 0 0.0292845 0 0)
(24.5716 0.195143 0 0.0295921 0 0)
(23.1803 0.205343 3.31048e-20 0.0284079 7.51696e-23 9.88638e-38)
(21.7335 0.212308 2.90989e-20 0.0265011 2.6043e-23 9.55765e-38)
(20.2603 0.213699 0 0.0263309 0 0)
(18.8152 0.205468 2.24645e-20 0.0260947 -9.85274e-23 8.9227e-38)
(17.5041 0.17843 0 0.0322445 0 0)
(16.5754 0.109049 0 0.0413697 0 0)
(16.1895 0.0382218 1.77057e-20 0.0416767 -3.063e-22 8.02473e-38)