/*--------------------------------*- C++ -*----------------------------------*\
  =========                 |
  \\      /  F ield         | OpenFOAM: The Open Source CFD Toolbox
   \\    /   O peration     | Website:  https://openfoam.org
    \\  /    A nd           | Version:  6
     \\/     M anipulation  |
\*---------------------------------------------------------------------------*/
FoamFile
{
    version     2.0;
    format      ascii;
    class       volScalarField;
    location    "0.05";
    object      k_0;
}
// * * * * * * * * * * * * * * * * * * * * * * * * * * * * * * * * * * * * * //

dimensions      [0 2 -2 0 0 0 0];

internalField   nonuniform List<scalar> 
12225
(
0.000464066
0.000682951
0.000517277
0.00026797
0.000168006
0.000154146
0.000177565
0.000231026
0.000242338
0.000231048
0.000168132
0.000105045
7.65178e-05
6.51894e-05
6.0152e-05
5.76414e-05
5.74297e-05
0.00032053
2.72949e-05
5.02468e-05
5.8703e-05
5.56393e-05
4.71522e-05
4.50804e-05
4.79428e-05
6.6421e-05
8.94972e-05
9.58852e-05
9.45911e-05
8.53022e-05
6.50885e-05
5.20196e-05
4.54385e-05
4.31606e-05
4.2868e-05
5.11115e-05
2.01699e-05
1.77772e-05
1.77965e-05
1.81787e-05
1.83885e-05
1.85332e-05
1.89359e-05
2.04778e-05
2.3939e-05
2.60581e-05
2.65623e-05
2.63236e-05
2.44874e-05
2.24696e-05
2.16448e-05
2.15221e-05
2.16498e-05
2.23898e-05
2.11363e-05
2.1428e-05
2.11949e-05
2.05619e-05
2.02728e-05
2.00249e-05
1.97348e-05
1.94459e-05
1.90362e-05
1.80453e-05
1.41738e-05
1.31725e-05
1.47309e-05
1.7179e-05
1.83481e-05
1.88136e-05
1.8958e-05
1.89336e-05
2.18076e-05
2.27828e-05
2.34306e-05
2.82259e-05
4.45941e-05
4.48347e-05
3.48678e-05
2.68515e-05
2.41918e-05
2.33266e-05
2.30287e-05
2.30352e-05
2.33423e-05
2.40026e-05
2.43604e-05
2.44055e-05
2.43634e-05
2.41716e-05
2.28507e-05
2.64053e-05
2.64173e-05
2.81853e-05
4.16334e-05
4.9231e-05
4.59602e-05
3.3796e-05
2.67266e-05
2.4333e-05
2.36731e-05
2.36058e-05
2.37272e-05
2.41747e-05
2.57927e-05
2.83016e-05
2.83916e-05
2.72826e-05
3.06496e-05
2.79762e-05
2.44869e-05
2.46681e-05
2.90943e-05
3.52503e-05
3.70972e-05
3.78743e-05
3.62821e-05
2.98322e-05
2.59961e-05
2.4418e-05
2.38724e-05
2.37769e-05
2.38561e-05
2.44327e-05
2.49619e-05
2.51059e-05
2.49353e-05
2.22549e-05
2.26716e-05
2.23485e-05
2.18957e-05
2.22353e-05
2.53017e-05
3.34387e-05
3.6519e-05
3.63963e-05
3.45018e-05
3.14418e-05
2.88742e-05
2.69184e-05
2.56064e-05
2.45118e-05
2.3808e-05
2.34866e-05
3.13095e-05
2.89355e-05
2.25139e-05
2.08268e-05
2.06596e-05
2.09856e-05
2.35189e-05
3.1457e-05
3.38894e-05
3.35774e-05
3.28075e-05
3.25843e-05
3.25467e-05
3.24989e-05
3.21014e-05
3.01437e-05
2.89705e-05
2.78826e-05
2.70182e-05
2.39396e-05
2.16713e-05
2.13984e-05
2.17358e-05
2.31758e-05
2.38533e-05
2.37728e-05
2.32933e-05
2.30729e-05
2.30623e-05
2.3192e-05
2.37863e-05
2.59701e-05
3.3508e-05
3.94671e-05
4.10092e-05
4.07165e-05
2.17496e-05
2.33202e-05
2.7868e-05
2.82599e-05
2.68041e-05
2.89684e-05
3.10867e-05
3.00025e-05
2.72996e-05
2.57874e-05
2.51134e-05
2.48972e-05
2.48836e-05
2.49982e-05
2.55329e-05
2.70116e-05
3.2132e-05
4.06235e-05
2.6207e-05
2.61092e-05
2.32525e-05
2.59972e-05
3.67572e-05
3.61345e-05
2.98776e-05
2.54856e-05
2.39911e-05
2.37306e-05
2.39285e-05
2.51211e-05
2.63374e-05
2.69179e-05
2.73116e-05
2.79384e-05
2.92345e-05
3.27623e-05
2.22393e-05
2.80762e-05
2.7762e-05
2.76915e-05
2.6507e-05
2.40088e-05
2.34591e-05
2.35189e-05
2.39978e-05
2.53859e-05
3.04546e-05
4.28674e-05
5.06002e-05
5.36158e-05
5.41231e-05
5.37789e-05
5.23663e-05
5.20473e-05
2.30242e-05
2.27053e-05
2.24673e-05
2.23288e-05
2.16834e-05
2.10561e-05
2.0875e-05
2.08655e-05
2.09439e-05
2.13201e-05
2.26914e-05
2.82039e-05
3.63274e-05
4.02399e-05
4.08679e-05
4.01759e-05
3.6563e-05
3.35525e-05
2.01297e-05
2.24093e-05
2.44724e-05
2.43214e-05
2.26681e-05
2.19656e-05
2.19225e-05
2.20967e-05
2.22974e-05
2.24029e-05
2.25102e-05
2.27194e-05
2.30319e-05
2.33464e-05
2.35539e-05
2.36018e-05
2.35512e-05
2.35628e-05
2.02836e-05
2.09953e-05
2.12357e-05
2.10878e-05
2.09391e-05
2.0896e-05
2.08881e-05
2.0891e-05
2.0909e-05
2.09326e-05
2.09708e-05
2.10585e-05
2.13476e-05
2.27066e-05
2.56168e-05
2.68061e-05
2.68577e-05
2.63058e-05
2.18899e-05
2.06742e-05
2.09477e-05
2.14441e-05
2.18746e-05
2.18892e-05
2.16575e-05
2.15023e-05
2.15464e-05
2.16121e-05
2.19767e-05
2.25593e-05
2.2848e-05
2.30808e-05
2.37049e-05
2.49145e-05
2.55076e-05
2.55645e-05
2.19595e-05
2.1168e-05
2.11632e-05
2.18494e-05
2.22298e-05
2.25769e-05
2.35556e-05
2.54929e-05
2.65437e-05
2.71999e-05
2.75063e-05
2.75441e-05
2.73502e-05
2.61349e-05
2.4044e-05
2.26536e-05
2.18331e-05
2.13983e-05
2.03823e-05
2.14712e-05
2.24042e-05
2.25369e-05
2.22981e-05
2.20506e-05
2.20741e-05
2.24525e-05
2.36273e-05
2.42967e-05
2.42329e-05
2.33251e-05
2.23096e-05
2.17394e-05
2.14482e-05
2.13049e-05
2.12356e-05
2.1173e-05
2.14547e-05
2.30651e-05
2.15949e-05
2.11546e-05
2.11658e-05
2.1421e-05
2.16394e-05
2.1668e-05
2.1617e-05
2.15034e-05
2.14689e-05
2.14726e-05
2.15172e-05
2.15517e-05
2.15558e-05
2.15455e-05
2.15012e-05
2.14775e-05
2.07975e-05
2.48042e-05
2.45823e-05
2.50562e-05
2.51363e-05
2.34881e-05
2.2003e-05
2.14785e-05
2.13117e-05
2.12584e-05
2.12252e-05
2.11584e-05
2.10616e-05
2.09721e-05
2.0901e-05
2.08512e-05
2.08224e-05
2.08102e-05
2.03208e-05
2.0628e-05
2.10354e-05
2.2573e-05
2.50128e-05
2.5829e-05
2.59238e-05
2.57165e-05
2.44913e-05
2.30022e-05
2.22377e-05
2.19316e-05
2.18469e-05
2.18336e-05
2.18149e-05
2.16387e-05
2.13755e-05
2.12737e-05
2.0938e-05
2.04536e-05
2.09401e-05
2.65226e-05
3.72312e-05
3.75263e-05
3.23501e-05
2.62919e-05
2.39568e-05
2.34276e-05
2.3532e-05
2.46755e-05
2.70375e-05
2.83558e-05
2.85675e-05
2.81319e-05
2.62022e-05
2.45583e-05
2.10643e-05
2.09138e-05
2.32772e-05
2.94369e-05
3.21008e-05
3.17985e-05
2.94444e-05
2.55838e-05
2.3778e-05
2.30887e-05
2.29231e-05
2.29872e-05
2.32633e-05
2.43673e-05
2.63434e-05
2.72056e-05
2.72014e-05
2.63221e-05
2.00215e-05
2.02748e-05
2.17682e-05
2.74863e-05
2.87436e-05
2.72068e-05
2.41502e-05
2.25866e-05
2.17708e-05
2.13532e-05
2.12024e-05
2.11926e-05
2.12977e-05
2.20429e-05
2.26302e-05
2.25614e-05
2.19709e-05
2.13996e-05
2.00026e-05
2.01735e-05
2.13895e-05
2.57266e-05
2.83896e-05
2.86034e-05
2.76899e-05
2.43633e-05
2.22742e-05
2.14247e-05
2.10009e-05
2.07482e-05
2.05903e-05
2.0563e-05
2.05227e-05
2.044e-05
2.03791e-05
2.03735e-05
2.00096e-05
2.01551e-05
2.05223e-05
2.07568e-05
2.07974e-05
2.07231e-05
2.02299e-05
1.93484e-05
1.89784e-05
1.89136e-05
1.89182e-05
1.89074e-05
1.87917e-05
1.81884e-05
1.74888e-05
1.73218e-05
1.73492e-05
1.74458e-05
2.0223e-05
1.83639e-05
1.45179e-05
1.21105e-05
1.06991e-05
1.0131e-05
1.00571e-05
1.01112e-05
1.03655e-05
1.12202e-05
1.2439e-05
1.32568e-05
1.37769e-05
1.41787e-05
1.47951e-05
1.562e-05
1.66098e-05
1.71327e-05
3.49584e-05
7.52191e-05
7.30593e-05
6.50525e-05
4.74089e-05
3.29729e-05
2.59959e-05
2.36204e-05
2.3287e-05
2.37418e-05
2.66108e-05
3.19527e-05
3.53708e-05
3.79534e-05
4.16171e-05
4.72604e-05
5.3909e-05
5.85228e-05
0.00151352
0.00252048
0.00235957
0.00142753
0.000537747
0.000195764
7.96405e-05
4.62777e-05
4.08605e-05
4.36334e-05
6.05901e-05
8.56329e-05
0.000104344
0.000116906
0.000123805
0.0001264
0.000126663
0.000125477
0.142026
0.199495
0.216369
0.241936
0.259823
0.264332
0.262106
0.258748
0.251646
0.247127
0.247205
0.247229
0.246214
0.24202
0.233391
0.224961
0.215941
0.206239
0.197369
0.188471
0.178473
0.168324
0.159498
0.152594
0.146963
0.141996
0.138198
0.134755
0.131353
0.129486
0.127451
0.125722
0.125681
0.126406
0.129217
0.13391
0.143054
0.156689
0.16883
0.204485
0.256047
0.240385
0.205401
0.200811
0.188537
0.184071
0.185982
0.187965
0.186956
0.194916
0.212559
0.24475
0.325817
0.325506
0.363059
0.386973
0.418827
0.33624
0.0710064
0.0276051
0.0221064
0.0207438
0.0200888
0.019463
0.0189858
0.0185349
0.0180277
0.0177802
0.0174093
0.0172564
0.0169833
0.0168669
0.0165413
0.016383
0.0159308
0.0155967
0.0149774
0.0145887
0.0137607
0.0131853
0.0123003
0.0116441
0.010589
0.00992966
0.00882668
0.00825613
0.00724407
0.00674762
0.00598586
0.00562942
0.00523254
0.00503365
0.00495025
0.00501713
0.00504841
0.00507322
0.00509424
0.00510866
0.00511774
0.0051224
0.00511306
0.00509273
0.00508803
0.00507024
0.00502966
0.00498586
0.00496026
0.00490696
0.00485062
0.00479534
0.00473078
0.00467613
0.00461081
0.00454449
0.00448748
0.00441978
0.00437741
0.00441549
0.00441614
0.0043438
0.0042292
0.00413984
0.00410298
0.00409333
0.00408281
0.00405624
0.00398407
0.00383262
0.00367218
0.00351998
0.00338172
0.00326059
0.00315646
0.00306694
0.00298792
0.00291136
0.00283476
0.00275617
0.00267142
0.00257605
0.00247606
0.00237632
0.0022784
0.00217774
0.00207971
0.0019959
0.00192923
0.00186953
0.0018076
0.00173847
0.00167088
0.00162284
0.00159933
0.00158098
0.00153922
0.00140469
0.00116236
0.000992165
0.000869019
0.000734259
0.000570968
0.000408307
0.000282265
0.000197466
0.000141555
0.000103316
7.62352e-05
5.68557e-05
4.39276e-05
3.49568e-05
2.89807e-05
2.40332e-05
2.04153e-05
1.6838e-05
1.43901e-05
1.15249e-05
9.99345e-06
7.07371e-06
2.10421e-05
1.59988e-05
0.185315
0.14729
0.153168
0.160544
0.164948
0.177861
0.197029
0.199756
0.197437
0.190233
0.175915
0.153615
0.127756
0.108832
0.095594
0.0862857
0.0797122
0.0749789
0.0715974
0.0694255
0.0677012
0.0663513
0.0652891
0.0644871
0.0638335
0.0632101
0.0626957
0.0621471
0.0615258
0.0608328
0.059859
0.0592081
0.0584727
0.0567518
0.0566121
0.0577406
0.0606726
0.0691911
0.0806378
0.0991464
0.151312
0.199657
0.201915
0.201759
0.201922
0.188048
0.180802
0.181385
0.180734
0.180401
0.177868
0.19364
0.216025
0.254657
0.348337
0.341585
0.170145
0.0869343
0.0275744
0.0171239
0.0140391
0.0126115
0.0115381
0.0106954
0.0102658
0.00980712
0.00952538
0.00933102
0.00910228
0.00898276
0.00879611
0.00870258
0.00853293
0.00843946
0.00825313
0.00815147
0.00796806
0.00787281
0.00769634
0.00760753
0.00747133
0.00740386
0.00731505
0.00727062
0.00721003
0.00717984
0.00716179
0.00716297
0.00716426
0.00716422
0.00716002
0.00714422
0.00711406
0.00708899
0.00707495
0.00704958
0.00701316
0.00698121
0.00696294
0.00695046
0.00693072
0.00691495
0.00691061
0.00690915
0.00690213
0.0069011
0.00690557
0.00690182
0.0068961
0.00689436
0.00687765
0.00685109
0.00680951
0.00675004
0.00666971
0.00656809
0.00644211
0.00634217
0.00628525
0.00622561
0.00614415
0.00605312
0.00596935
0.00590221
0.00585449
0.0058233
0.00579563
0.00574467
0.00565411
0.00555091
0.00544989
0.00535617
0.00526984
0.00518985
0.00511162
0.00503142
0.00494795
0.00485891
0.0047612
0.00465136
0.00452637
0.0043853
0.00422851
0.00405314
0.00384422
0.00358266
0.00325763
0.00288573
0.00251794
0.00220962
0.00196908
0.00179297
0.00168354
0.00163658
0.00163149
0.00164712
0.00166302
0.0016647
0.00165778
0.00161879
0.00156995
0.00154159
0.00151563
0.00148969
0.00146716
0.00143222
0.00135013
0.00114752
0.000940756
0.000763682
0.000631733
0.000517066
0.000430052
0.000345577
0.000286107
0.000224528
0.000198738
0.00015525
0.000149376
0.000129253
0.119343
0.123571
0.124823
0.121746
0.11633
0.109556
0.105171
0.0990658
0.0911755
0.0834683
0.0767859
0.0715242
0.069277
0.0672205
0.0654398
0.0643862
0.0644128
0.0651312
0.0668511
0.0691072
0.0716257
0.0741365
0.0762874
0.0779158
0.0789402
0.0792298
0.0790573
0.0783511
0.0765786
0.07382
0.0704608
0.0665478
0.0628069
0.0594064
0.0557617
0.0523591
0.0509615
0.0512527
0.05278
0.0567427
0.0676864
0.0909712
0.142137
0.175873
0.192297
0.192577
0.190466
0.188475
0.189933
0.190352
0.186213
0.178193
0.19058
0.321953
0.272219
0.113913
0.045827
0.0230168
0.0138192
0.0116821
0.0108448
0.0103273
0.00999128
0.00970111
0.00952619
0.00938017
0.00921988
0.00913652
0.00898721
0.00890947
0.00875639
0.00867674
0.00853894
0.00847067
0.00834349
0.00827823
0.00815957
0.00810124
0.00800987
0.00796615
0.00790161
0.00786155
0.0077695
0.00768699
0.00759511
0.00749726
0.00738939
0.00725409
0.00712752
0.00701754
0.00692751
0.0068184
0.0066935
0.00654765
0.00640761
0.00628971
0.00619206
0.00612222
0.00608013
0.00606013
0.00605341
0.00606373
0.00609438
0.0061466
0.00621639
0.00630843
0.00642739
0.00657033
0.00673839
0.00690723
0.00704624
0.0071523
0.00725013
0.00733093
0.00738283
0.00739763
0.00737684
0.00727593
0.00711267
0.00692258
0.00674364
0.00662442
0.00652848
0.00644094
0.00635046
0.00625402
0.00616981
0.00610209
0.00604376
0.00599214
0.00595239
0.00591927
0.00588156
0.00583571
0.00577854
0.00570672
0.00562123
0.00552403
0.00541235
0.0052833
0.00513641
0.00497517
0.00480691
0.0046392
0.0044798
0.00432638
0.00416825
0.00398061
0.00372137
0.00337818
0.00299799
0.00260524
0.0021718
0.00171393
0.00135126
0.00115809
0.00108684
0.00106884
0.00105822
0.00103237
0.00101128
0.00100872
0.00101529
0.00105335
0.00116092
0.00121899
0.00122401
0.00120858
0.00114348
0.000960309
0.000789135
0.000652183
0.000552018
0.000460603
0.000392166
0.000323348
0.000281404
0.000229946
0.000209376
0.000171605
0.0603242
0.0548914
0.0556318
0.0578273
0.0600724
0.0613595
0.0626329
0.0637432
0.0635308
0.0618398
0.0622893
0.0661529
0.0718871
0.0780577
0.0828823
0.0877162
0.0924935
0.0964635
0.0992523
0.101158
0.102111
0.102319
0.10212
0.101479
0.100335
0.0987079
0.0964155
0.0934529
0.0898549
0.0850652
0.0798588
0.0740272
0.0684902
0.0635584
0.0587795
0.0542357
0.0504825
0.0485561
0.0483667
0.0487507
0.0506192
0.0561105
0.0694969
0.0969186
0.139505
0.169977
0.182045
0.185619
0.187618
0.189891
0.190378
0.185581
0.209424
0.325499
0.119143
0.0423081
0.0205384
0.0143027
0.0123159
0.0116197
0.0112677
0.0111488
0.0111277
0.0111678
0.0111876
0.0110587
0.0108858
0.0107954
0.0105407
0.0103655
0.0102317
0.0100828
0.00988362
0.00979217
0.00964923
0.00956695
0.00941122
0.00930333
0.00911253
0.00894614
0.00872835
0.00849217
0.00824054
0.00793983
0.00758177
0.0072742
0.00695333
0.00650319
0.00602002
0.00551202
0.0050292
0.00467457
0.00438652
0.00427508
0.00425869
0.00427293
0.00431085
0.00436111
0.0044156
0.00447501
0.00451263
0.00452528
0.00452684
0.00450765
0.00448022
0.00444256
0.0044134
0.00439399
0.00439586
0.0044644
0.00465177
0.00496809
0.0053867
0.0059098
0.00652329
0.00709916
0.00748803
0.00775346
0.00790547
0.00793971
0.00787104
0.00762858
0.00738711
0.0072273
0.0071327
0.00707745
0.00703114
0.00699039
0.00695965
0.00693576
0.00689745
0.00685002
0.00680383
0.0067601
0.00671446
0.00665986
0.00658849
0.00649216
0.00635707
0.00616788
0.00591559
0.00559829
0.00523558
0.00488276
0.00458653
0.00434323
0.00416951
0.00407108
0.0040474
0.00406762
0.00408535
0.00403266
0.0037994
0.00335256
0.00273312
0.002022
0.00144518
0.00112868
0.00100754
0.000914514
0.000799835
0.000726761
0.000718255
0.000733424
0.000796651
0.000906912
0.00099205
0.0010289
0.00103036
0.00101489
0.000957111
0.000804489
0.000632279
0.000477187
0.000356298
0.000269097
0.000210519
0.000175999
0.000140459
0.000135481
0.0432652
0.0443972
0.0493546
0.0549607
0.0574832
0.058553
0.0628835
0.0718614
0.0783058
0.0812621
0.0851672
0.0921432
0.0975301
0.10054
0.102943
0.105187
0.106105
0.106248
0.106054
0.105332
0.104212
0.102728
0.100837
0.0984475
0.095674
0.092524
0.0887981
0.0840309
0.078535
0.073377
0.0697546
0.065711
0.0625412
0.0591899
0.0558504
0.0524532
0.0494423
0.0473438
0.0463117
0.0461217
0.0463398
0.0473409
0.0503228
0.0577421
0.0732038
0.103675
0.137661
0.162863
0.175542
0.183886
0.189409
0.187236
0.194213
0.311173
0.0781434
0.0257108
0.0162661
0.0141756
0.013457
0.0138252
0.0143653
0.0145898
0.0144554
0.0140561
0.0135614
0.0130714
0.0125024
0.0120567
0.0116901
0.0113045
0.0108959
0.0106402
0.0103323
0.0100866
0.00979783
0.00962758
0.00934749
0.00911789
0.00875472
0.00836601
0.00787554
0.00730036
0.00663603
0.00588157
0.00512243
0.00446194
0.00392578
0.00355556
0.00339129
0.00332972
0.00332142
0.00340055
0.00360921
0.00387735
0.00425122
0.00462238
0.0050142
0.00538983
0.00573148
0.00603968
0.00621599
0.00628139
0.00627943
0.0061355
0.00591603
0.00558964
0.00521981
0.00480512
0.00438907
0.00399045
0.00363019
0.00334683
0.00316131
0.00307772
0.00310334
0.00340984
0.00419431
0.00529653
0.00656299
0.00761409
0.00817701
0.00839479
0.00838052
0.00805731
0.00763566
0.00744336
0.00738216
0.00736781
0.00736544
0.00736931
0.00738494
0.00741083
0.00744384
0.00747583
0.00750421
0.00752742
0.0075429
0.00754723
0.00753971
0.00751078
0.00745019
0.00733982
0.00713039
0.00674365
0.00612787
0.00532805
0.00447914
0.00383372
0.00342322
0.00321549
0.00317213
0.00326609
0.00339987
0.00340296
0.0032469
0.00270522
0.00210853
0.00167274
0.00142159
0.00131255
0.00128071
0.00127104
0.00124844
0.0011807
0.001119
0.00107582
0.00105604
0.00105976
0.00111354
0.00128503
0.00137172
0.0013747
0.00131235
0.000994972
0.000560705
0.000314328
0.00018
0.000114567
8.27838e-05
6.87716e-05
0.0433216
0.0493034
0.0599794
0.0667597
0.0710893
0.0743151
0.0813589
0.0878181
0.0913606
0.0953736
0.0988242
0.101888
0.103009
0.103231
0.10313
0.102353
0.100341
0.0973211
0.0942317
0.0906563
0.0869304
0.0833561
0.0799478
0.076813
0.0739129
0.0715713
0.0703943
0.0700663
0.069862
0.0692186
0.0679029
0.0651577
0.0630534
0.0597865
0.0571898
0.055006
0.0534815
0.052481
0.051451
0.050882
0.0499079
0.0481991
0.0476539
0.0486868
0.0524952
0.0614432
0.0797298
0.109274
0.140749
0.164121
0.179695
0.182363
0.186971
0.288809
0.0872124
0.0223946
0.0166105
0.0158545
0.0176915
0.0185067
0.0184029
0.0177461
0.0167462
0.0156028
0.0144474
0.0134942
0.0127125
0.0120205
0.0115126
0.0110597
0.0105509
0.0101881
0.00977734
0.00940328
0.00892722
0.00845778
0.00777147
0.00699966
0.00614103
0.00528009
0.00446801
0.00386485
0.00345959
0.00328889
0.00321866
0.00320705
0.00332503
0.00357605
0.00380859
0.00425925
0.00497234
0.00589153
0.00701087
0.00822917
0.00943154
0.0105474
0.0115712
0.0124071
0.0130917
0.0136786
0.0139381
0.0140331
0.0140508
0.0139349
0.0136775
0.0132388
0.0126275
0.0117722
0.0106901
0.00938217
0.00785727
0.00623817
0.00490411
0.00380626
0.00299326
0.00245331
0.00213979
0.00204469
0.00216883
0.00301773
0.00489398
0.00691985
0.00839906
0.00899219
0.00903691
0.00868969
0.00806898
0.00776491
0.00762576
0.00756309
0.00753602
0.00752946
0.0075381
0.00756511
0.00759232
0.00761566
0.00763341
0.00764352
0.00764593
0.00764355
0.00763413
0.00762144
0.00760344
0.00756987
0.00749735
0.00731907
0.00683042
0.00566216
0.00432123
0.00333606
0.00280729
0.00260075
0.00257812
0.00268601
0.00280013
0.00278147
0.00252975
0.00197587
0.00162584
0.00146745
0.00142005
0.00140398
0.00137499
0.00128256
0.0011802
0.00113794
0.00112235
0.00111867
0.00113192
0.00124554
0.00150607
0.0016398
0.0016613
0.00162071
0.00136504
0.000831112
0.000472486
0.000260422
0.000168703
0.00011172
0.0456011
0.0569645
0.0655857
0.0726836
0.0761272
0.0790096
0.0833632
0.0870336
0.0893677
0.0904917
0.0907536
0.0891618
0.0850714
0.0796095
0.0737084
0.0678561
0.0617664
0.057581
0.0540862
0.0521546
0.0510016
0.050644
0.0508164
0.0526177
0.0551508
0.0587371
0.06295
0.0665009
0.0695869
0.0723415
0.0762224
0.0801838
0.0814955
0.0800904
0.07785
0.0767085
0.0769398
0.0795125
0.0822689
0.0856231
0.0845973
0.0775627
0.0638299
0.0534993
0.0518965
0.0530183
0.0581631
0.0762121
0.0939828
0.1128
0.145276
0.167458
0.176747
0.242609
0.108215
0.024527
0.0179611
0.0198458
0.0212366
0.0212966
0.0202671
0.01892
0.0173894
0.0158491
0.0143478
0.0129518
0.0116369
0.0103992
0.00922601
0.00847255
0.00792651
0.00741603
0.00676748
0.00626057
0.00563092
0.0049222
0.00436154
0.00386084
0.00347743
0.0032365
0.00313292
0.00311192
0.0031976
0.00332804
0.00356427
0.00401353
0.00474539
0.00584207
0.00734178
0.00935637
0.0115428
0.0136301
0.0156998
0.0175075
0.0191303
0.0205048
0.0213459
0.0216429
0.0216809
0.0213488
0.0204707
0.0196015
0.0187728
0.0180703
0.0174571
0.017036
0.0167922
0.0166802
0.0166065
0.0165163
0.0162641
0.0155485
0.0137582
0.0110288
0.00801012
0.00571488
0.00389815
0.0025802
0.0017669
0.00136681
0.00129128
0.00154356
0.00306697
0.00624819
0.00867767
0.00965235
0.00979086
0.00963091
0.00891732
0.00834448
0.00807426
0.00795705
0.00792624
0.00792049
0.0079082
0.00787213
0.00781467
0.00775738
0.00771195
0.00767785
0.00765112
0.00762983
0.00761099
0.00759434
0.00757636
0.00753974
0.00745985
0.00726238
0.00665114
0.00500492
0.00350424
0.00266715
0.00233979
0.00227972
0.00232942
0.00240789
0.00239491
0.00220284
0.00173907
0.00147291
0.00137842
0.00135184
0.00131886
0.00122471
0.00108707
0.0010198
0.00101257
0.00101851
0.00104003
0.00111563
0.00134759
0.00154623
0.0016262
0.00163255
0.00158672
0.00133393
0.000866486
0.000525
0.00032552
0.000212513
0.0468425
0.0606227
0.0683764
0.0720486
0.0741176
0.075413
0.0759973
0.0739659
0.0683848
0.062049
0.0542864
0.0479996
0.0415097
0.038052
0.0340457
0.0318945
0.0298683
0.0289096
0.0284055
0.0282386
0.0284581
0.0290145
0.0299141
0.0312568
0.0332654
0.0365175
0.0414156
0.0490958
0.0585223
0.0689046
0.0772565
0.0866753
0.0960311
0.102761
0.107073
0.10986
0.113258
0.118846
0.125852
0.131578
0.133361
0.127775
0.123706
0.112913
0.0837745
0.06601
0.0642319
0.0682983
0.0776294
0.090959
0.125218
0.154064
0.164886
0.213888
0.138773
0.0309632
0.0201624
0.0223947
0.0232904
0.0223056
0.0206816
0.018924
0.0169457
0.0147875
0.0125998
0.010136
0.00785346
0.00621864
0.00523021
0.00467539
0.00440486
0.00412973
0.00383304
0.00360077
0.00335721
0.00312962
0.00301251
0.00296262
0.00297852
0.0030631
0.00317813
0.00341336
0.00386173
0.00458375
0.00581121
0.00763403
0.0101159
0.0126453
0.015286
0.0178373
0.0202612
0.0227941
0.0250858
0.0271423
0.0287609
0.0297468
0.0301497
0.0300132
0.028826
0.0273951
0.0254494
0.0235459
0.0216538
0.0200937
0.0188379
0.0179493
0.0174125
0.0171443
0.0171914
0.0174666
0.0179008
0.0184978
0.019234
0.0195746
0.0185028
0.0150393
0.0111751
0.0077934
0.00495425
0.00286124
0.00156844
0.000951323
0.000784904
0.00089229
0.00196572
0.00567954
0.00843228
0.00970331
0.0101115
0.0101268
0.00997625
0.00946973
0.00903992
0.00879691
0.00867967
0.00860242
0.00850984
0.00836703
0.00817801
0.00798206
0.00781999
0.00770486
0.00762461
0.00756554
0.0075274
0.00750708
0.00747882
0.00741619
0.0072588
0.00676144
0.00513615
0.00345048
0.00254529
0.00221586
0.00216614
0.00220829
0.00223981
0.00219712
0.0019026
0.00142633
0.00119137
0.00112629
0.00107226
0.000970774
0.00087018
0.000811595
0.000798785
0.000819363
0.000928724
0.00107579
0.00117677
0.00128689
0.00139984
0.0014535
0.00145405
0.00139647
0.00113555
0.000727668
0.000445962
0.000278145
0.0484345
0.0613953
0.0661181
0.0670716
0.0642661
0.0572926
0.0508234
0.0424007
0.037569
0.0318313
0.028877
0.0257963
0.0242995
0.0231821
0.0225081
0.0221636
0.0220053
0.021968
0.0220886
0.0222883
0.0226137
0.02285
0.0229664
0.0230253
0.0230793
0.0233045
0.0240687
0.0249284
0.0285252
0.0356611
0.0494193
0.0654213
0.0825718
0.0977848
0.10659
0.111731
0.115815
0.120136
0.125408
0.12721
0.128224
0.126571
0.131583
0.146558
0.153976
0.14837
0.124184
0.0953216
0.0894337
0.0946639
0.116741
0.140017
0.151088
0.195646
0.160485
0.0467064
0.0235714
0.0238668
0.02402
0.0224131
0.0202484
0.0176868
0.0143373
0.0112288
0.0088042
0.0070179
0.00500529
0.00372842
0.00318215
0.00293878
0.00285055
0.00286587
0.00284232
0.00282788
0.00280854
0.00281276
0.00288268
0.00297663
0.00315946
0.00348939
0.00406373
0.00512153
0.00693765
0.00927576
0.0118537
0.0142993
0.0165036
0.019115
0.0219777
0.0252827
0.029194
0.0335836
0.0381036
0.0428401
0.0469938
0.0500062
0.0513216
0.0515417
0.049738
0.046411
0.0416761
0.0363746
0.0309403
0.0261765
0.0224382
0.0197781
0.0181124
0.017234
0.0169197
0.0169271
0.0172964
0.0181218
0.0194471
0.0210053
0.0224264
0.0227107
0.0214044
0.0175587
0.0128554
0.00851053
0.00502229
0.00262442
0.00124322
0.00062353
0.000480435
0.000639595
0.0017511
0.00548329
0.0083354
0.00959582
0.0100271
0.0101062
0.0100886
0.00997474
0.00956632
0.0091285
0.00884383
0.00866022
0.00848526
0.00825916
0.00801979
0.00782495
0.00768796
0.00758913
0.00751245
0.00746386
0.00743254
0.00739321
0.00731403
0.00711702
0.00645228
0.00457662
0.00307472
0.0023492
0.00212342
0.00209751
0.00210608
0.00209263
0.00195665
0.00149655
0.0011062
0.000896417
0.000790696
0.000710609
0.000651238
0.000622205
0.000617688
0.000636505
0.000774324
0.0010382
0.0011843
0.00122998
0.00124287
0.00126531
0.00127692
0.0012647
0.00115611
0.000831034
0.000546519
0.000348333
0.0495233
0.0589346
0.0598054
0.0527854
0.0426831
0.0370361
0.030399
0.0270575
0.0244712
0.0231977
0.0227089
0.0225588
0.0228109
0.0230819
0.0235673
0.0247063
0.0261791
0.0280148
0.0298748
0.0314247
0.0322174
0.0325292
0.0322772
0.0311736
0.029396
0.026867
0.0244223
0.0222113
0.0205231
0.0190632
0.0184465
0.0193009
0.0240272
0.0334762
0.047891
0.060481
0.0713606
0.0790872
0.0816234
0.0867676
0.0941609
0.0983291
0.10824
0.130373
0.144728
0.146413
0.14226
0.12862
0.114475
0.110648
0.118463
0.129194
0.140093
0.183185
0.166877
0.0630333
0.0271404
0.0246729
0.0240625
0.021789
0.017465
0.0135797
0.0103726
0.00802111
0.00637251
0.00503391
0.00350696
0.00251981
0.00229203
0.00225923
0.00245433
0.00259598
0.00269677
0.00278531
0.00282891
0.0029287
0.00315845
0.00355345
0.00426517
0.00553011
0.00747964
0.00972026
0.0118668
0.0138618
0.0160877
0.0185832
0.0217678
0.0259995
0.0316434
0.0390289
0.0482343
0.0590591
0.0710242
0.0827918
0.0928098
0.0981981
0.100162
0.0993885
0.09511
0.0884179
0.0793045
0.0683734
0.0560937
0.0438941
0.0341699
0.0267497
0.0217899
0.0188331
0.0173716
0.0168714
0.0168543
0.0171657
0.0180413
0.0201643
0.0227425
0.0248054
0.0256381
0.0253879
0.0232254
0.0178401
0.0121347
0.00735246
0.00395515
0.00187251
0.000774057
0.000385004
0.000391871
0.000731743
0.00202766
0.00560099
0.00816375
0.00937038
0.00980584
0.00983752
0.00976456
0.00952172
0.00905041
0.00857884
0.00814684
0.00785855
0.00772135
0.00761848
0.00752397
0.00746601
0.00743679
0.00741915
0.00739794
0.00736473
0.00730461
0.00717586
0.00682762
0.00560015
0.00377558
0.00269728
0.00222985
0.00207971
0.00204373
0.00201205
0.00191003
0.00154165
0.00112387
0.000847478
0.000666898
0.000558972
0.000503013
0.000481955
0.00048004
0.00049197
0.000575072
0.000866087
0.0011032
0.00120382
0.00122486
0.00122164
0.00121025
0.00117894
0.00106374
0.000791222
0.000561163
0.000388725
0.048823
0.0535307
0.0491367
0.0365279
0.0301525
0.0258621
0.0233117
0.0223497
0.0220826
0.0225388
0.0231392
0.0245425
0.0272007
0.0313423
0.0377873
0.0435032
0.0475638
0.0503453
0.0517109
0.0522851
0.0524202
0.0520974
0.0517228
0.0509659
0.0500973
0.0485059
0.0459866
0.0408969
0.0340024
0.0254066
0.0177417
0.0133383
0.00999332
0.00877557
0.00838891
0.0107397
0.0163619
0.0279184
0.0505362
0.0714019
0.0843426
0.0930001
0.105348
0.131492
0.177065
0.195265
0.189409
0.174831
0.147509
0.129134
0.1253
0.128529
0.137587
0.176319
0.16621
0.0652103
0.0280951
0.0248444
0.0235441
0.018509
0.0129761
0.0102342
0.0081178
0.006033
0.00448573
0.00378978
0.00271993
0.00193019
0.00185303
0.00206178
0.00244615
0.00261463
0.00277753
0.00299708
0.00324231
0.00371004
0.00466114
0.00588603
0.00753185
0.00943513
0.011062
0.013021
0.0148736
0.0171402
0.0201407
0.0242708
0.0299199
0.0384608
0.0510498
0.0687084
0.0915458
0.112598
0.126951
0.132243
0.133342
0.132324
0.128743
0.124317
0.119218
0.113267
0.106112
0.0975862
0.0873703
0.07468
0.0588396
0.0430908
0.0318309
0.024668
0.0205295
0.0184946
0.017739
0.0176266
0.0179608
0.0193372
0.0223835
0.0254214
0.0274275
0.0282341
0.028215
0.0270996
0.0223704
0.0152542
0.00925451
0.00502495
0.00242716
0.00100939
0.000411719
0.000306191
0.00041051
0.000926126
0.0024455
0.00540312
0.00752797
0.0085984
0.00890721
0.00887285
0.00866887
0.00807545
0.00731091
0.00672947
0.00638585
0.0062715
0.00628943
0.00651044
0.00681569
0.00696487
0.00702434
0.00703979
0.0070364
0.00699997
0.00683535
0.00617018
0.00441335
0.00305292
0.00235841
0.00208495
0.00199963
0.0019492
0.00184224
0.00151674
0.00111636
0.000831326
0.000630659
0.000494115
0.000417566
0.000390073
0.000386236
0.000390238
0.000418506
0.000552427
0.000874207
0.00107975
0.0011555
0.00116203
0.00113711
0.00101348
0.000837031
0.000676466
0.000516688
0.0003824
0.0473421
0.0484714
0.0380552
0.0277519
0.0236294
0.021793
0.0212579
0.0216039
0.0223823
0.0240987
0.0274954
0.0343081
0.0456099
0.0529673
0.0574089
0.0592205
0.0598113
0.0597125
0.0587657
0.0583783
0.0577715
0.0574888
0.0566745
0.0561329
0.0551938
0.0547989
0.0546707
0.0546449
0.0545512
0.0516343
0.0435567
0.0298344
0.0156346
0.00871084
0.00535925
0.00421967
0.0039325
0.00654341
0.0150892
0.0337057
0.0633724
0.0841423
0.0983598
0.131515
0.191871
0.229606
0.232218
0.224812
0.206072
0.176336
0.151927
0.1447
0.149673
0.178383
0.159555
0.056206
0.0274235
0.0245448
0.0207959
0.014152
0.0104735
0.00883974
0.00750651
0.00564865
0.00383252
0.00280678
0.0020686
0.00160064
0.00158466
0.00200372
0.00252664
0.00294605
0.00338843
0.00382668
0.00463644
0.00585617
0.00744679
0.00933594
0.0106835
0.0117895
0.0136574
0.0156077
0.0180447
0.021286
0.0257704
0.0322914
0.0441208
0.0644188
0.0931462
0.123733
0.138895
0.145046
0.146525
0.144656
0.140476
0.135393
0.130054
0.124825
0.119917
0.114935
0.109245
0.102476
0.0946085
0.0860792
0.0762516
0.0638607
0.0481968
0.0351864
0.0272029
0.0228152
0.0208057
0.0201157
0.0200004
0.0203572
0.0225727
0.0261709
0.0287219
0.0300586
0.0305203
0.030546
0.0298515
0.0260243
0.0175781
0.0104815
0.00561626
0.00270293
0.00114664
0.000462434
0.00026302
0.000278286
0.000478168
0.00107824
0.00254997
0.00435006
0.00547854
0.00578669
0.00573501
0.0054048
0.00455879
0.00388777
0.0035484
0.00347993
0.00359765
0.00438868
0.00555823
0.0061473
0.0063251
0.00634952
0.00635223
0.00635117
0.00631378
0.0060614
0.00491887
0.00334541
0.00244992
0.00205795
0.00192438
0.00186298
0.00175465
0.00146266
0.00109192
0.000811253
0.000612043
0.000472031
0.000381661
0.000336694
0.00032536
0.000325593
0.000332357
0.000364099
0.000492756
0.000782425
0.000960157
0.00101206
0.00100243
0.000883567
0.000622667
0.000501395
0.00041569
0.000340837
0.0449502
0.0437279
0.030232
0.0234569
0.021066
0.0204751
0.0207175
0.0220135
0.0243727
0.0304339
0.0423204
0.0554702
0.0616647
0.0643965
0.0652127
0.0647838
0.0633808
0.0627577
0.0619111
0.0615218
0.06117
0.0611416
0.0603007
0.059014
0.0572414
0.0558111
0.0550412
0.0547346
0.056232
0.0578657
0.0582898
0.0551848
0.0452541
0.0252986
0.0110494
0.00489267
0.00260745
0.00186818
0.00229706
0.00597351
0.019146
0.0554794
0.0885054
0.118702
0.193894
0.238638
0.247512
0.244838
0.234102