/*--------------------------------*- C++ -*----------------------------------*\
  =========                 |
  \\      /  F ield         | OpenFOAM: The Open Source CFD Toolbox
   \\    /   O peration     | Website:  https://openfoam.org
    \\  /    A nd           | Version:  6
     \\/     M anipulation  |
\*---------------------------------------------------------------------------*/
FoamFile
{
    version     2.0;
    format      ascii;
    class       volScalarField;
    location    "0.05";
    object      pMean;
}
// * * * * * * * * * * * * * * * * * * * * * * * * * * * * * * * * * * * * * //

dimensions      [0 2 -2 0 0 0 0];

internalField   nonuniform List<scalar> 
12225
(
16.1041
15.3989
14.8304
14.4742
14.2401
14.0434
13.8489
13.6531
13.463
13.2821
13.1122
12.9475
12.7862
12.607
12.3972
12.072
11.5621
10.5409
15.9666
15.3607
14.815
14.4599
14.2253
14.0299
13.8368
13.6421
13.4519
13.271
13.0992
12.9339
12.7664
12.5866
12.3617
12.0511
11.5448
10.8145
15.8318
15.3291
14.8163
14.4592
14.2203
14.0246
13.8326
13.6381
13.4472
13.2644
13.09
12.9197
12.746
12.555
12.3215
12.0089
11.5661
11.0184
15.71
15.2935
14.8157
14.4567
14.2112
14.0138
13.8227
13.6286
13.4367
13.2519
13.0741
12.899
12.7183
12.5185
12.2794
11.9765
11.5947
11.1492
15.6117
15.2548
14.8113
14.4536
14.202
14.0026
13.8125
13.6193
13.4268
13.2401
13.0592
12.8796
12.6931
12.488
12.2496
11.9647
11.6292
11.254
15.5176
15.2073
14.7963
14.4454
14.1901
13.9888
13.7998
13.6079
13.4153
13.2268
13.043
12.8596
12.6692
12.4622
12.229
11.9627
11.663
11.338
15.4325
15.155
14.7732
14.4337
14.1776
13.9742
13.7854
13.5947
13.4022
13.2124
13.0261
12.8398
12.6472
12.441
12.215
11.9654
11.6934
11.4057
15.3699
15.1059
14.7479
14.4219
14.1668
13.9611
13.7718
13.5817
13.3893
13.1984
13.0101
12.8218
12.6283
12.4243
12.2057
11.9706
11.7206
11.4614
15.3122
15.0561
14.7184
14.4065
14.1543
13.9467
13.7563
13.5665
13.3744
13.1829
12.9934
12.8041
12.6111
12.4105
12.1994
11.9772
11.7455
11.5085
15.2424
15.0018
14.6841
14.3863
14.1387
13.9304
13.7391
13.5495
13.358
13.1666
12.9767
12.7874
12.5959
12.3992
12.1956
11.9848
11.7684
11.5495
15.165
14.9467
14.648
14.363
14.1211
13.9138
13.7223
13.5331
13.3423
13.1513
12.9617
12.7731
12.5835
12.3909
12.194
11.993
11.789
11.5845
15.0947
14.8963
14.6118
14.3375
14.102
13.8971
13.706
13.5172
13.3271
13.1371
12.9484
12.7611
12.5738
12.3851
12.194
12.0009
11.8065
11.6127
15.0476
14.8543
14.5773
14.3115
14.082
13.8795
13.6889
13.5003
13.3109
13.1217
12.9342
12.7485
12.5637
12.3787
12.193
12.0068
11.8209
11.6367
15.0317
14.8214
14.5459
14.287
14.0632
13.8635
13.6735
13.4851
13.2963
13.1084
12.9225
12.739
12.5572
12.3764
12.1964
12.0173
11.8396
11.664
14.992
14.7758
14.5032
14.2516
14.0348
13.8395
13.6515
13.4641
13.2767
13.0907
12.9073
12.7268
12.5489
12.3729
12.1988
12.0267
11.8568
11.6898
14.9076
14.7112
14.4496
14.2059
13.9968
13.8076
13.6237
13.4391
13.2542
13.071
12.8908
12.7141
12.5405
12.3696
12.2015
12.036
11.8735
11.7143
14.8368
14.6529
14.403
14.1682
13.9658
13.7817
13.6013
13.4194
13.2371
13.0568
12.8798
12.7067
12.5372
12.371
12.2081
12.0484
11.892
11.7392
14.7987
14.6127
14.3658
14.136
13.9373
13.7557
13.5774
13.3976
13.2177
13.0401
12.8664
12.6969
12.5316
12.37
12.2121
12.0578
11.9071
11.7599
14.7831
14.5934
14.3483
14.1217
13.925
13.7445
13.5676
13.3901
13.213
13.0385
12.868
12.702
12.5406
12.3833
12.2301
12.0807
11.9352
11.7935
14.7643
14.5808
14.3404
14.1155
13.9188
13.7381
13.5617
13.3857
13.2107
13.0385
12.8704
12.707
12.5484
12.3942
12.2443
12.0984
11.9564
11.8184
14.7477
14.5838
14.3487
14.1209
13.9201
13.737
13.5605
13.3854
13.2114
13.0403
12.8732
12.7111
12.5541
12.4018
12.254
12.1105
11.971
11.8355
14.7843
14.6153
14.3747
14.1399
13.9332
13.7472
13.5699
13.3946
13.2203
13.0488
12.8818
12.7202
12.564
12.4129
12.2665
12.1245
11.9867
11.853
14.8474
14.6643
14.4091
14.1611
13.9455
13.756
13.5782
13.403
13.2283
13.0563
12.8891
12.7278
12.5724
12.4222
12.2768
12.136
11.9995
11.8674
14.9218
14.7221
14.4453
14.1802
13.9565
13.7652
13.5874
13.4115
13.2357
13.0627
12.8953
12.7343
12.5795
12.4301
12.2856
12.1457
12.0103
11.8793
14.9999
14.7822
14.4793
14.1955
13.9655
13.7741
13.5966
13.4196
13.2423
13.0683
12.9006
12.7399
12.5855
12.4366
12.2926
12.1533
12.0187
11.8887
15.0866
14.8408
14.5067
14.2073
13.9756
13.7861
13.6082
13.4291
13.2496
13.0745
12.9065
12.7459
12.5918
12.4432
12.2997
12.1609
12.0268
11.8972
15.1806
14.8914
14.5186
14.2084
13.9802
13.7941
13.6159
13.4349
13.2539
13.0782
12.9102
12.7497
12.5957
12.4472
12.3038
12.1653
12.0316
11.9027
15.3127
14.9413
14.5228
14.2065
13.9844
13.8017
13.6232
13.4408
13.2591
13.0834
12.9157
12.7556
12.6019
12.4537
12.3106
12.1726
12.0394
11.9107
15.467
14.9881
14.525
14.2044
13.9862
13.8046
13.6247
13.4407
13.2582
13.0824
12.9149
12.755
12.6015
12.4534
12.3104
12.1726
12.04
11.913
15.6091
15.0326
14.541
14.217
13.9992
13.8167
13.6351
13.4496
13.2661
13.0897
12.9218
12.7617
12.6078
12.4596
12.3164
12.1786
12.0458
11.9189
8.47841
8.42591
8.35003
8.29551
8.31577
8.4166
8.5293
8.55661
8.42033
8.08564
7.56844
6.92822
6.24584
5.5984
5.044
4.61852
4.33813
4.20296
4.20056
4.30851
4.49765
4.73553
4.98997
5.23124
5.43143
5.56351
5.60349
5.53127
5.38806
5.23585
5.0689
4.82018
4.41957
3.85528
3.16971
2.4163
1.64198
0.873473
0.081514
-0.776689
-1.68862
-2.58854
-3.40489
-4.10503
-4.70573
-5.22106
-5.6447
-5.92766
-6.04754
-6.15833
-6.42498
-6.84306
-7.35712
-7.89268
-8.40412
-8.88252
-9.36787
-9.90778
-10.4773
-11.0106
-11.4539
-11.7694
-11.938
-11.9512
-11.8081
-11.5108
-11.0641
-10.475
-9.75218
-8.90539
-7.94508
-6.88252
-5.72954
-4.49805
-3.19979
-1.84617
-0.448051
0.984296
2.44125
3.91384
5.39389
6.87406
8.34806
9.81077
11.2582
12.6872
14.0954
15.4801
16.8377
18.1627
19.4474
20.6817
21.8541
22.9531
23.9689
24.8946
25.7273
26.4679
27.1203
27.6905
28.1858
28.6136
28.9807
29.2929
29.5553
29.7717
29.9451
30.078
30.1724
30.2301
30.2527
30.2422
30.2005
30.1299
30.0328
29.9122
29.7711
29.6129
29.441
29.2588
29.0697
28.8769
28.6833
28.4913
28.3033
28.1212
27.9464
27.7801
27.6233
27.4765
27.3399
27.2137
27.0975
26.9908
26.8928
26.8028
26.7195
26.6417
26.5683
26.4979
26.4294
26.3617
26.2939
26.2252
26.155
26.0828
26.0085
25.9317
25.8525
25.7708
25.6869
25.6009
25.513
25.4234
25.3324
25.2405
25.1477
25.0545
24.9606
24.8661
24.7707
24.6746
24.5778
24.4809
24.3845
24.2889
24.1948
24.1026
24.0129
23.9262
23.8434
23.7654
23.6942
23.6316
23.5822
23.5495
23.5441
23.5696
23.648
23.7562
8.20289
8.14485
8.06314
7.99203
7.96368
7.96441
7.93116
7.78791
7.48386
7.01231
6.40853
5.73436
5.05866
4.44232
3.93081
3.55188
3.31714
3.22502
3.26357
3.41192
3.64305
3.92438
4.22155
4.49749
4.7176
4.85662
4.90846
4.84866
4.69052
4.50451
4.23903
3.82326
3.26797
2.60213
1.86318
1.08676
0.300273
-0.459264
-1.20533
-2.0068
-2.85896
-3.69589
-4.46627
-5.15177
-5.73607
-6.20995
-6.66107
-7.05881
-7.26478
-7.42953
-7.70026
-8.07382
-8.51113
-8.96391
-9.42045
-9.88299
-10.3687
-10.8831
-11.3848
-11.8312
-12.1833
-12.4144
-12.5095
-12.4601
-12.2637
-11.9214
-11.4369
-10.816
-10.0659
-9.19549
-8.21476
-7.13453
-5.9662
-4.72144
-3.41196
-2.04911
-0.643715
0.794042
2.25465
3.72931
5.20999
6.68956
8.16202
9.62266
11.068
12.4957
13.9039
15.2904
16.6523
17.9842
19.2785
20.5248
21.7108
22.8238
23.8529
24.7906
25.6338
26.3831
27.0429
27.6194
28.1202
28.5528
28.9244
29.2409
29.5073
29.7273
29.9041
30.0401
30.1373
30.1975
30.2225
30.214
30.1742
30.1051
30.0095
29.89
29.75
29.5926
29.4215
29.24
29.0515
28.8593
28.6662
28.4748
28.2873
28.1057
27.9315
27.7659
27.6098
27.4638
27.328
27.2025
27.0872
26.9813
26.8843
26.7951
26.7126
26.6356
26.5629
26.4932
26.4253
26.3582
26.2909
26.2226
26.1527
26.0809
26.0068
25.9303
25.8513
25.7699
25.6861
25.6002
25.5123
25.4229
25.3321
25.2402
25.1476
25.0543
24.9605
24.866
24.7706
24.6745
24.5778
24.481
24.3845
24.2888
24.1945
24.1021
24.012
23.9248
23.8414
23.7625
23.6902
23.6258
23.5744
23.5376
23.5268
23.5403
23.5973
23.6536
8.0766
8.0373
7.95438
7.81684
7.61441
7.32833
6.94056
6.44115
5.83565
5.15118
4.43317
3.7313
3.08849
2.53878
2.10651
1.80533
1.63918
1.60402
1.6893
1.87816
2.14745
2.46893
2.80955
3.13412
3.40469
3.58574
3.66658
3.646
3.50987
3.26245
2.88326
2.36577
1.73693
1.00022
0.192328
-0.635974
-1.45852
-2.26718
-3.07219
-3.89798
-4.72702
-5.5062
-6.21373
-6.86163
-7.48149
-8.05455
-8.55726
-8.99136
-9.30848
-9.5546
-9.79042
-10.0583
-10.3586
-10.6934
-11.0806
-11.5093
-11.9546
-12.3845
-12.7682
-13.0841
-13.3102
-13.4299
-13.4301
-13.3016
-13.0389
-12.6397
-12.1054
-11.4398
-10.6491
-9.74153
-8.7268
-7.61569
-6.41967
-5.15057
-3.82021
-2.44005
-1.02094
0.427036
1.89456
3.37306
4.85478
6.33289
7.80185
9.25761
10.6977
12.121
13.527
14.9152
16.2835
17.6275
18.9394
20.2082
21.4201
22.5604
23.616
24.578
25.4421
26.2093
26.884
27.4734
27.9856
28.4285
28.8095
29.1348
29.4092
29.6367
29.8203
29.9625
30.0654
30.1307
30.1602
30.1559
30.1196
30.0537
29.9608
29.8437
29.7057
29.5502
29.3806
29.2006
29.0136
28.8227
28.6309
28.4408
28.2548
28.0746
27.9019
27.7378
27.5833
27.4389
27.3049
27.1812
27.0677
26.9637
26.8685
26.781
26.7003
26.6249
26.5536
26.4852
26.4185
26.3523
26.2859
26.2184
26.1492
26.0779
26.0042
25.9281
25.8495
25.7685
25.6851
25.5995
25.512
25.4228
25.3322
25.2405
25.148
25.0547
24.9608
24.8663
24.7709
24.6748
24.5783
24.4816
24.3852
24.2895
24.195
24.1021
24.0113
23.9231
23.8383
23.7576
23.6831
23.6156
23.5597
23.5161
23.4938
23.488
23.5063
23.4979
8.02755
7.9842
7.80621
7.43287
6.8719
6.18495
5.43431
4.65939
3.88134
3.11877
2.39572
1.73818
1.16927
0.706937
0.363079
0.14291
0.0446577
0.0603053
0.177297
0.380185
0.64994
0.962082
1.2864
1.58399
1.82458
1.99307
2.07341
2.05936
1.94138
1.70975
1.35401
0.864321
0.245556
-0.488664
-1.30064
-2.14996
-3.02139
-3.93256
-4.87812
-5.80537
-6.6968
-7.53554
-8.29103
-8.99671
-9.69506
-10.3592
-10.9332
-11.3957
-11.7387
-11.9833
-12.1646
-12.3366
-12.5284
-12.7647
-13.073
-13.4275
-13.7774
-14.0923
-14.3539
-14.5473
-14.6585
-14.675
-14.5851
-14.3789
-14.0484
-13.589
-12.999
-12.2809
-11.4403
-10.4852
-9.42577
-8.27316
-7.03938
-5.73676
-4.37757
-2.97356
-1.5357
-0.0739997
1.40245
2.8854
4.36739
5.84194
7.304
8.75037
10.1799
11.5934
12.9925
14.379
15.7529
17.111
18.4459
19.7456
20.9941
22.1737
23.2678
24.2649
25.1595
25.9524
26.6489
27.2572
27.7862
28.2445
28.6396
28.978
29.2644
29.5029
29.6965
29.8478
29.9588
30.0314
30.0675
30.069
30.038
29.9767
29.8878
29.7743
29.6395
29.4868
29.3198
29.1422
28.9574
28.7687
28.579
28.3912
28.2073
28.0294
27.859
27.6974
27.5455
27.4037
27.2724
27.1514
27.0407
26.9394
26.8469
26.7621
26.6838
26.6108
26.5416
26.475
26.4099
26.3452
26.2799
26.2133
26.1449
26.0743
26.0012
25.9255
25.8473
25.7666
25.6836
25.5984
25.5112
25.4224
25.3321
25.2406
25.1481
25.0549
24.961
24.8664
24.771
24.675
24.5786
24.4821
24.3856
24.2897
24.1947
24.1011
24.0094
23.9199
23.8334
23.7507
23.6733
23.602
23.5403
23.4886
23.4519
23.4238
23.4017
23.3426
7.90914
7.7258
7.257
6.53055
5.6695
4.76919
3.87479
3.0088
2.18756
1.42467
0.731192
0.118834
-0.399095
-0.810143
-1.10488
-1.27948
-1.33785
-1.29137
-1.15676
-0.953996
-0.704867
-0.435649
-0.178878
0.0357407
0.190549
0.276826
0.289759
0.230242
0.0982201
-0.112775
-0.414764
-0.824467
-1.35042
-1.98866
-2.72675
-3.55345
-4.46617
-5.4777
-6.54629
-7.6005
-8.59907
-9.55157
-10.454
-11.3202
-12.1469
-12.8896
-13.5086
-13.9835
-14.317
-14.5332
-14.6663
-14.7628
-14.863
-15.0082
-15.2211
-15.4635
-15.6903
-15.8835
-16.0297
-16.1159
-16.1296
-16.0586
-15.8915
-15.6173
-15.2256
-14.7088
-14.0629
-13.2886
-12.3916
-11.3808
-10.2672
-9.06331
-7.78205
-6.4367
-5.04024
-3.60499
-2.14225
-0.66209
0.826588
2.31581
3.79838
5.26799
6.71986
8.15154
9.56336
10.9583
12.3411
13.7168
15.0886
16.4562
17.8132
19.1471
20.4394
21.6681
22.8117
23.8538
24.7871
25.6125
26.3366
26.9689
27.5196
27.9979
28.4117
28.7674
29.0699
29.323
29.5299
29.693
29.8147
29.8968
29.9415
29.9507
29.9264
29.8711
29.7875
29.6787
29.548
29.3991
29.2357
29.0614
28.8799
28.6945
28.5082
28.3236
28.1432
27.9688
27.8019
27.6439
27.4956
27.3575
27.2299
27.1128
27.0057
26.9082
26.8193
26.738
26.6629
26.5929
26.5264
26.4622
26.3992
26.3362
26.2725
26.2072
26.1398
26.0701
25.9976
25.9225
25.8447
25.7643
25.6816
25.5968
25.51
25.4216
25.3316
25.2403
25.148
25.0549
24.961
24.8665
24.7712
24.6752
24.5788
24.4822
24.3856
24.2893
24.1939
24.0995
24.0067
23.9158
23.8275
23.7424
23.6618
23.5862
23.5181
23.4572
23.4053
23.3556
23.2997
23.2067
7.41249
7.00005
6.23428
5.31696
4.36713
3.42963
2.52306
1.65392
0.827264
0.05455
-0.648262
-1.26531
-1.7826
-2.18819
-2.47446
-2.64109
-2.69578
-2.65328
-2.53351
-2.3595
-2.15606
-1.9516
-1.77523
-1.65066
-1.59155
-1.60025
-1.67198
-1.79852
-1.97391
-2.1995
-2.48446
-2.8426
-3.28835
-3.83513
-4.5004
-5.29731
-6.23693
-7.308
-8.44522
-9.58689
-10.7058
-11.8018
-12.8715
-13.897
-14.8329
-15.6345
-16.2771
-16.7483
-17.055
-17.2229
-17.2882
-17.2998
-17.3041
-17.3429
-17.4334
-17.5417
-17.6354
-17.706
-17.7437
-17.7367
-17.671
-17.5315
-17.3045
-16.9768
-16.5354
-15.9693
-15.2716
-14.4416
-13.485
-12.4124
-11.2368
-9.97251
-8.634
-7.23585
-5.79217
-4.31614
-2.81961
-1.31289
0.195137
1.69668
3.18461
4.65245
6.09514
7.51036
8.89951
10.2678
11.6234
12.9753
14.3314
15.6959
17.0657
18.429
19.7653
21.0478
22.2484
23.3445
24.3245
25.1891
25.9463
26.6077
27.1849
27.6879
28.1251
28.5025
28.8251
29.0965
29.3199
29.4978
29.6326
29.7266
29.7817
29.8002
29.7841
29.7361
29.659
29.5558
29.4303
29.2862
29.1273
28.9575
28.7804
28.5995
28.4178
28.238
28.0624
27.893
27.7312
27.5783
27.4351
27.3022
27.1796
27.0675
26.9653
26.8724
26.788
26.7109
26.6397
26.5732
26.5099
26.4484
26.3877
26.3267
26.2646
26.2007
26.1345
26.0657
25.994
25.9196
25.8423
25.7623
25.68
25.5954
25.509
25.4208
25.3311
25.2401
25.148
25.055
24.9612
24.8666
24.7713
24.6753
24.5789
24.4821
24.3853
24.2887
24.1926
24.0974
24.0034
23.911
23.8207
23.7331
23.6489
23.5686
23.4936
23.4232
23.3567
23.2875
23.2058
23.0895
6.2563
5.76608
4.98842
4.12059
3.22324
2.32258
1.43966
0.585339
-0.234581
-1.00881
-1.72145
-2.35614
-2.89624
-3.32664
-3.63939
-3.83641
-3.92859
-3.93365
-3.87352
-3.77194
-3.65297
-3.54202
-3.46451
-3.44109
-3.48161
-3.58594
-3.74734
-3.95555
-4.20223
-4.48453
-4.80699
-5.17985
-5.62044
-6.15382
-6.81307
-7.62569
-8.60656
-9.72557
-10.9278
-12.1544
-13.3766
-14.595
-15.7913
-16.9142
-17.9034
-18.722
-19.3512
-19.7835
-20.0287
-20.1125
-20.0758
-19.9734
-19.8546
-19.7572
-19.6997
-19.6614
-19.6207
-19.5738
-19.5142
-19.4306
-19.3047
-19.115
-18.8427
-18.4717
-17.9874
-17.3761
-16.6286
-15.7425
-14.7236
-13.5843
-12.3401
-11.0079
-9.60415
-8.14519
-6.64643
-5.12194
-3.58402
-2.04306
-0.507771
1.01432
2.51613
3.99067
5.43189
6.83666
8.2065
9.5481
10.8723
12.1922
13.521
14.8688
16.2383
17.6209
18.995
20.3295
21.589
22.7433
23.7758
24.6853
25.481
26.1766
26.7851
27.3177
27.7825
28.186
28.5325
28.8256
29.0685
29.2637
29.4138
29.5212
29.5882
29.6172
29.6106
29.5709
29.5012
29.4049
29.2855
29.1472
28.9938
28.8296
28.6581
28.483
28.3074
28.1339
27.9648
27.802
27.6469
27.5008
27.3644
27.2382
27.1222
27.0163
26.9202
26.8331
26.7541
26.682
26.6154
26.5528
26.4929
26.4344
26.3761
26.3171
26.2567
26.1942
26.1292
26.0612
25.9903
25.9164
25.8398
25.7603
25.6783
25.5941
25.5079
25.42
25.3306
25.2399
25.1479
25.055
24.9613
24.8667
24.7713
24.6753
24.5788
24.4819
24.3848
24.2877
24.191
24.0948
23.9996
23.9055
23.8131
23.7227
23.6347
23.5496
23.4675
23.3876
23.3078
23.2219
23.1203
22.9864
4.91721
4.52743
3.90784
3.16548
2.35477
1.51753
0.679222
-0.14947
-0.960524
-1.73958
-2.46997
-3.13358
-3.71051
-4.18514
-4.55054
-4.8096
-4.97421
-5.06255
-5.09556
-5.0949
-5.08259
-5.08244
-5.11722
-5.20316
-5.34766
-5.5515
-5.80935
-6.11224
-6.45212
-6.82477
-7.23353
-7.6892
-8.21178
-8.83128
-9.58353
-10.4988
-11.5814
-12.7945
-14.093
-15.4172
-16.7303
-18.031
-19.2875
-20.4332
-21.4111
-22.1918
-22.7586
-23.1066
-23.2481
-23.2111
-23.0409
-22.7945
-22.5218
-22.2622
-22.0421
-21.8547
-21.6862
-21.5335
-21.3905
-21.2436
-21.0684
-20.8355
-20.5198
-20.1035
-19.5723
-18.9125
-18.1129
-17.1689
-16.0858
-14.8772
-13.5617
-12.1587
-10.6874
-9.16577
-7.61027
-6.0354
-4.45342
-2.8745
-1.30704
0.241809
1.76519
3.25576
4.70632
6.11228
7.47424
8.79896
10.0986
11.3891
12.6881
14.0122
15.3713
16.7621
18.1645
19.5437
20.8576
22.0686
23.1546
24.1117
24.9496
25.6834
26.3277
26.894
27.3908
27.8239
28.1976
28.5152
28.7795
28.9935
29.16
29.2817
29.3614
29.4017
29.4051
29.3747
29.3134
29.2249
29.1128
28.9814
28.8348
28.6773
28.5127
28.3446
28.1764
28.0107
27.8498
27.6955
27.5491
27.4117
27.2838
27.1659
27.058
26.9599
26.8712
26.791
26.7183
26.652
26.5905
26.5324
26.4764
26.4209
26.3652
26.3082
26.2494
26.1883
26.1243
26.0572
25.987
25.9137
25.8375
25.7585
25.6768
25.5929
25.507
25.4194
25.3302
25.2397
25.1479
25.0551
24.9614
24.8668
24.7715
24.6754
24.5786
24.4815
24.384
24.2864
24.1889
24.0918
23.9952
23.8994
23.8048
23.7115
23.6197
23.5295
23.4406
23.3517
23.26
23.1598
23.0423
22.8941
3.92654
3.63924
3.14769
2.51458
1.79174
1.0205
0.225108
-0.582776
-1.39258
-2.18799
-2.94951
-3.65454
-4.28125
-4.81468
-5.24911
-5.5884
-5.84466
-6.03485
-6.17719
-6.29025
-6.39468
-6.51288
-6.66419
-6.86132
-7.11105
-7.41509
-7.76993
-8.16956
-8.60884
-9.08677
-9.61077
-10.1966
-10.8684
-11.6579
-12.598
-13.7068
-14.9682
-16.3398
-17.7736
-19.2067
-20.5969
-21.9397
-23.1998
-24.3113
-25.2272
-25.9237
-26.3861
-26.6132
-26.621
-26.4421
-26.1239
-25.7202
-25.2795
-24.8473
-24.4609
-24.1264
-23.8358
-23.5837
-23.3611
-23.151
-22.9236
-22.6434
-22.2803
-21.8146
-21.233
-20.5225
-19.6702
-18.6696
-17.5247
-16.2506
-14.8685
-13.401
-11.869
-10.2913
-8.68388
-7.06077
-5.43395
-3.8138
-2.2092
-0.627689
0.9237
2.43752
3.90611
5.32388
6.69029
8.01136
9.29919
10.5708
11.8469
13.1493
14.4947
15.8863
17.3073
18.7213
20.0808
21.3418
22.4774
23.4813
24.3625
25.1369
25.8201
26.4237
26.9558
27.4216
27.8249
28.1687
28.4559
28.6895
28.8729
29.0092
29.1019
29.1538
29.168
29.1475
29.0954
29.0155
28.9117
28.7883
28.6496
28.5
28.3436
28.1839
28.0244
27.8679
27.7167
27.5725
27.4367
27.31
27.1929
27.0854
26.9874
26.8987
26.8187
26.7465
26.6812
26.6214
26.5656
26.5124
26.4603
26.4082
26.3551
26.3002
26.243
26.1831
26.1201
26.0537
25.9841
25.9112
25.8354
25.7568
25.6755
25.5919
25.5062
25.4188
25.3298
25.2395
25.1479
25.0553
24.9616
24.867
24.7716
24.6753
24.5784
24.4809
24.383
24.2848
24.1865
24.0883
23.9904
23.8929
23.7959
23.6996
23.604
23.5088
23.4134
23.316
23.2137
23.1012
22.9707
22.8107
3.34679
3.11726
2.70392
2.14435
1.48077
0.751291
-0.0196782
-0.818942
-1.63527
-2.45242
-3.24916
-4.00113
-4.68618
-5.28912
-5.80398
-6.23388
-6.58891
-6.88336
-7.13382
-7.35902
-7.5795
-7.81486
-8.08004
-8.3851
-8.73598
-9.13407
-9.57713
-10.063
-10.5928
-11.1745
-11.8254
-12.5694
-13.4344
-14.449
-15.6324
-16.9785
-18.4531
-20.007
-21.5828
-23.1186
-24.568
-25.9212
-27.1536
-28.2075
-29.0429
-29.64
-29.9869
-30.0863
-29.9591
-29.6425
-29.1848
-28.6341
-28.0367
-27.4429
-26.8978
-26.4188
-26.0044
-25.6488
-25.3401
-25.0585
-24.7717
-24.4406
-24.0306
-23.5187
-22.8903
-22.1314
-21.2289
-20.1753
-18.9752
-17.6456
-16.2104
-14.6944
-13.1192
-11.5015
-9.85428
-8.18935
-6.51851
-4.85341
-3.20502
-1.58336
0.00280721
1.54577
3.0384
4.47523
5.85512
7.18333
8.47146
9.73664
11.0009
12.2895
13.6246
15.0153
16.4486
17.888
19.2824
20.5835
21.7613
22.8077
23.7309
24.5466
25.2704
25.9136
26.4832
26.9838
27.4184
27.7896
28.1005
28.3543
28.5548
28.706
28.8117
28.8756
28.9007
28.8904
28.848
28.7773
28.6824
28.5678
28.4381
28.2976
28.1506
28.0009
27.8517
27.7059
27.566
27.4336
27.31
27.1959
27.0915
26.9965
26.9105
26.8331
26.7633
26.7004
26.6433
26.5906
26.541
26.493
26.4452
26.3965
26.346
26.293
26.2373
26.1785
26.1164
26.0507
25.9816
25.9092
25.8337
25.7554
25.6744
25.591
25.5056
25.4184
25.3296
25.2395
25.148
25.0555
24.9618
24.8672
24.7717
24.6753
24.5781
24.4803
24.3819
24.2831
24.1839
24.0846
23.9853
23.8859
23.7867
23.6874
23.588
23.4879
23.3863
23.2811
23.1695
23.0464
22.9048
22.7352
3.05873
2.85349
2.46912
1.93526
1.28857
0.56454
-0.211619
-1.02389
-1.86019
-2.70566
-3.54096
-4.34394
-5.09349
-5.77311
-6.37388
-6.8952
-7.34354
-7.73114
-8.07501
-8.39541
-8.71292
-9.04441
-9.40138
-9.79144
-10.2187
-10.6839
-11.1879
-11.7354
-12.3387
-13.0177
-13.7996
-14.7126
-15.7817
-17.0223
-18.4312
-19.9791
-21.6243
-23.3181
-25.0028
-26.6203
-28.1113
-29.4553
-30.6447
-31.635
-32.3933
-32.9052
-33.1617
-33.167
-32.9437
-32.5299
-31.9717
-31.3132
-30.5997
-29.8834
-29.2117
-28.6092
-28.0819
-27.6256
-27.2301
-26.8757
-26.5285
-26.1467
-25.6911
-25.1352
-24.4623
-23.6578
-22.7079
-21.6064
-20.3597
-18.9876
-17.5172
-15.975
-14.3815
-12.7483
-11.0818
-9.38905
-7.68102
-5.9716
-4.27564
-2.60775
-0.980589
0.596525
2.11734
3.57761
4.97632
6.31822
7.61467
8.88313
10.1467
11.4325
12.7664
14.1609
15.6053
17.0633
18.4822
19.8125
21.0234
22.1061
23.0682
23.9244
24.6889
25.3719
25.9794
26.515
26.9814
27.3808
27.7158
27.9901
28.2078
28.3737
28.4923
28.5679
28.6039
28.6038
28.571
28.5096
28.424
28.3189
28.1991
28.069
27.9328
27.7945
27.6574
27.5242
27.3974
27.2787
27.1691
27.0693
26.9793
26.8987
26.8266
26.7621
26.7042
26.6519
26.6039
26.5591
26.5161
26.4735
26.43
26.3847
26.3369
26.2861
26.2319
26.1742
26.1129
26.0479
25.9793
25.9074
25.8323
25.7543
25.6736
25.5904
25.5051
25.4181
25.3295
25.2395
25.1481
25.0557
24.9621
24.8674
24.7718
24.6752
24.5778
24.4795
24.3806
24.2812
24.1812
24.0807
23.9799
23.8788
23.7772
23.675
23.5719
23.4671
23.3596
23.2474
23.1275
22.9952
22.8443
22.6668
2.88621
2.68161
2.29064
1.73841
1.05891
0.288458
-0.543195
-1.41387
-2.30794
-3.21061
-4.10434
-4.96843
-5.78172
-6.5264
-7.19184
-7.77608
-8.28525
-8.73258
-9.13641
-9.517
-9.89261
-10.2767
-10.6785
-11.1045
-11.559
-12.0459
-12.5727
-13.1533
-13.8097
-14.5696
-15.4623
-16.5114
-17.7309
-19.1208
-20.6624
-22.3206
-24.0568
-25.8267
-27.5784
-29.2512
-30.7677
-32.0928
-33.2355
-34.1702
-34.8698
-35.3247
-35.5291
-35.4902
-35.2298
-34.7831
-34.1897
-33.4878
-32.7227
-31.9468
-31.2064
-30.5301
-29.9269
-29.3963
-28.9319
-28.5156
-28.1136
-27.6822
-27.18
-26.5794
-25.8641
-25.018
-24.0266
-22.8851
-21.6026
-20.2025
-18.7153
-17.1703
-15.5863
-13.9674
-12.3095
-10.6116
-8.88197
-7.13679
-5.3961
-3.68091
-2.01001
-0.396128
1.15459
2.63979
4.05953
5.41853
6.72849
8.00808
9.28191
10.5786
11.9246
13.3325
14.7911
16.2637
17.6984
19.0477
20.2824
21.3946
22.3912
23.285
24.0881
24.8087
25.4519
26.0209
26.518
26.9451
27.3041
27.5986
27.8331
28.0131
28.1441
28.2308
28.2773
28.287
28.2636
28.2115
28.1355
28.0405
27.9314
27.8128
27.6891
27.5639
27.4405
27.3219
27.2102
27.1071
27.0135
26.9299
26.8561
26.7913
26.7347
26.6847
26.6402
26.5997
26.562
26.5258
26.4898
26.4529
26.4141
26.3725
26.3275
26.2788
26.2262
26.1698
26.1094
26.0452
25.9772
25.9057
25.831
25.7533
25.6729
25.5899
25.5049
25.418
25.3295
25.2396
25.1483
25.0559
24.9623
24.8676
24.7718
24.6751
24.5773
24.4787
24.3793
24.2791
24.1783
24.0767
23.9745
23.8715
23.7676
23.6626
23.5559
23.4467
23.3338
23.2152
23.0878
22.9475
22.7888
22.6048
2.70292
2.47816
2.0416
1.41634
0.638642
-0.247211
-1.20122
-2.19177
-3.19632
-4.19547
-5.16868
-6.09353
-6.94938
-7.72185
-8.40554
-9.00392
-9.52679
-9.98812
-10.4047
-10.7933
-11.168
-11.5397
-11.9186
-12.3143
-12.7362
-13.1938
-13.6999
-14.2728
-14.9372
-15.7216
-16.6511
-17.7417
-18.9997
-20.4208
-21.9887
-23.6757
-25.443
-27.24
-29.015
-30.7118
-32.2438
-33.5565
-34.6646
-35.5645
-36.2346
-36.666
-36.8585
-36.8236
-36.584
-36.1698
-35.6122
-34.9422
-34.2013
-33.44
-32.7022
-32.0156
-31.3894
-30.827
-30.3254
-29.8678
-29.4223
-28.9474
-28.4036
-27.7643
-27.0137
-26.1351
-25.1121
-23.9409
-22.6349
-21.2215
-19.7357
-18.211
-16.6657
-15.0948
-13.4796
-11.8076
-10.0822
-8.32022
-6.54654
-4.78909
-3.07499
-1.42318
0.158282
1.66864
3.11049
4.49021
5.82065
7.12187
8.41967
9.74253
11.1148
12.5458
14.0217
15.5053
16.9478
18.3064
19.5563
20.6912
21.7172
22.6443
23.4816
24.2353
24.91
25.5088
26.0339
26.4865
26.868
27.1816
27.4319
27.6251
27.7673
27.8643
27.9203
27.9392
27.9248
27.8819
27.8157
27.7314
27.6342
27.5285
27.4187
27.3083
27.2008
27.0987
27.0041
26.9186
26.843
26.7775
26.7215
26.6742
26.6342
26.6
26.57
26.5425
26.516
26.4893
26.4611
26.4305
26.3966
26.3589
26.3169
26.2706
26.2199
26.1649
26.1057
26.0422
25.9749
25.9039
25.8297
25.7524
25.6723
25.5897
25.5048
25.4181
25.3297
25.2398
25.1486
25.0562
24.9626
24.8678
24.7719
24.6749
24.5769
24.4778
24.3779
24.277
24.1753
24.0727
23.969
23.8643
23.7582
23.6504
23.5403
23.427
23.3091
23.1846
23.0506
22.9034
22.738
22.5486
2.46544
2.19735
1.6713
0.914679
-0.0244726
-1.08575
-2.21385
-3.36326
-4.49912
-5.59386
-6.62575
-7.57844
-8.44151
-9.21089
-9.88844
-10.4808
-10.9955
-11.4386
-11.8189
-12.1502
-12.4482
-12.7286
-13.0071
-13.2993
-13.6204
-13.9846
-14.4066
-14.9032
-15.4973
-16.2155
-17.0819
-18.1115
-19.3107
-20.6784
-22.2055
-23.8693
-25.6258
-27.4158
-29.1795
-30.8683
-32.4112
-33.7359
-34.8365
-35.727
-36.3983
-36.842
-37.0609
-37.072
-36.9009
-36.5742
-36.1164
-35.5492
-34.9064
-34.2335
-33.5696
-32.9371
-32.3452
-31.7995
-31.2985
-30.8259
-30.3536
-29.849
-29.2782
-28.6146
-27.8421
-26.9441
-25.9021
-24.714
-23.3984
-21.9873
-20.5214
-19.0406
-17.5651
-16.0788
-14.544
-12.933
-11.2422
-9.48755
-7.69611
-5.90229
-4.14499
-2.45379
-0.841225
0.693482
2.1579
3.56273
4.92257
6.25735
7.592
8.95298
10.3607
11.8195
13.3115
14.7999
16.2412
17.6002
18.858
20.0101
21.0605
22.0158
22.8818
23.6631
24.364
24.9876
25.5361
26.0103
26.4113
26.7415
27.0057
27.2104
27.3624
27.4683
27.5327
27.5598
27.5539
27.5202
27.4644
27.3918
27.3075
27.2161
27.1218
27.0281
26.9383
26.8547
26.7794
26.7136
26.6579
26.6123
26.576
26.5476
26.5255
26.508
26.4932
26.4794
26.4649
26.4485
26.4288
26.4051
26.3766
26.3432
26.3047
26.2611
26.2125
26.1592
26.1013
26.0389
25.9723
25.902
25.8283
25.7515
25.6719
25.5896
25.505
25.4184
25.3301
25.2403
25.1491
25.0567
24.963
24.8681
24.772
24.6748
24.5764
24.477
24.3765
24.275
24.1724
24.0686
23.9636
23.8571
23.7489
23.6385
23.5252
23.408
23.2855
23.1557
23.016
22.8627
22.6916
22.4976
2.26285
1.93931
1.29991
0.386168
-0.733929
-1.97999
-3.28104
-4.57941
-5.83245
-7.01282
-8.10619
-9.10377
-9.99644
-10.7776
-11.4464
-12.0073
-12.4665
-12.8264
-13.0926
-13.2821
-13.4201
-13.5317
-13.6384
-13.7596
-13.9138
-14.1188
-14.3909
-14.7472
-15.2081
-15.7984
-16.5422
-17.4569
-18.5512
-19.8267
-21.277
-22.8786
-24.5841
-26.333
-28.0635
-29.7251
-31.2686
-32.6254
-33.7604
-34.679
-35.3858
-35.8792
-36.1645
-36.262
-36.2007
-36.0076
-35.7028
-35.2991
-34.8185
-34.2966
-33.7654
-33.2418
-32.7351
-32.2503
-31.7843
-31.3217
-30.841
-30.3224
-29.7434
-29.0766
-28.3
-27.3976
-26.3523
-25.1641
-23.8565
-22.4673
-21.042
-19.6274
-18.2473
-16.8765
-15.4539
-13.9322
-12.3006
-10.5734
-8.77729
-6.95272
-5.15328
-3.42417
-1.78448
-0.230335
1.25401
2.68564
4.08029
5.45569
6.83394
8.23803
9.68285
11.1663
12.6668
14.1501
15.581
16.9341
18.1957
19.3617
20.4326
21.4107
22.2994
23.1024
23.8234
24.4657
25.0315
25.5219
25.9376
26.2808
26.556
26.7698
26.9298
27.043
27.1146
27.1491
27.1514
27.1272
27.0823
27.0224
26.9522
26.8764
26.7989
26.7235
26.6532
26.5901
26.5361
26.4922
26.4586
26.4349
26.4198
26.4119
26.409
26.4092
26.4104
26.4109
26.4089
26.4032
26.3926
26.3763
26.354
26.3254
26.2908
26.2503
26.2041
26.1527
26.0963
26.0351
25.9695
25.8999
25.8269
25.7506
25.6715
25.5896
25.5053
25.4189
25.3307
25.241
25.1498
25.0573
24.9635
24.8685
24.7722
24.6748
24.5761
24.4762
24.3752
24.273
24.1695
24.0647
23.9584
23.8502
23.74
23.627
23.5107
23.39
23.2633
23.1288
22.984
22.8255
22.6495
22.4515
2.35857
1.98022
1.23365
0.170783
-1.12223
-2.54936
-4.03045
-5.50201
-6.91883
-8.25219
-9.4827
-10.5885
-11.5383
-12.3069
-12.8944
-13.3168
-13.5962
-13.7521
-13.7995
-13.7609
-13.6674
-13.5505
-13.4353
-13.3419
-13.2904
-13.3011
-13.3933
-13.5853
-13.8956
-14.3445
-14.9544
-15.7459
-16.7296
-17.9045
-19.2598
-20.7696
-22.3894
-24.0658
-25.7441
-27.3717
-28.9076
-30.3008
-31.5005
-32.4914
-33.2794
-33.8704
-34.2713
-34.5029
-34.5962
-34.5814
-34.4762
-34.2843
-34.0133
-33.6863
-33.3286
-32.955
-32.5728
-32.1826
-31.7776
-31.3457
-30.8752
-30.3594
-29.7871
-29.1347
-28.3753
-27.4898
-26.4615
-25.2932
-24.0141
-22.6684
-21.3033
-19.9688
-18.6943
-17.4518
-16.1585
-14.7431
-13.1857
-11.5014
-9.71699
-7.87861
-6.05314
-4.30001
-2.64338
-1.07544
0.426923
1.88536
3.31572
4.73313
6.15611
7.6021
9.0783
10.5758
12.072
13.5395
14.9545
16.3001
17.5658
18.7444
19.8318
20.827
21.7319
22.5498
23.2842
23.9385
24.5153
25.0157
25.4409
25.793
26.0761
26.2967
26.4629
26.5821
26.6599
26.7012
26.7116
26.6973
26.6642
26.6178
26.5626
26.5032
26.4438
26.3881
26.3391
26.2988
26.2687
26.2494
26.2407
26.2415
26.2503
26.265
26.2832
26.3027
26.3212
26.337
26.3483
26.3539
26.3529
26.3446
26.3289
26.3057
26.2754
26.2383
26.1949
26.1456
26.0909
26.0311
25.9665
25.8978
25.8254
25.7498
25.6712
25.5897
25.5057
25.4196
25.3316
25.2419
25.1507
25.0581
24.9642
24.8691
24.7726
24.6749
24.5758
24.4756
24.374
24.2711
24.1668
24.061
23.9533
23.8436
23.7314
23.6162
23.4971
23.373
23.2426
23.1039
22.9545
22.7914
22.6112
22.41
3.08928
2.64092
1.77325
0.546539
-0.944284
-2.5929
-4.31017
-6.01899
-7.65449
-9.16517
-10.5123
-11.6625
-12.5745
-13.2128
-13.59
-13.7579
-13.7653
-13.648
-13.4301
-13.1359
-12.7968
-12.4452
-12.107
-11.8035
-11.5567
-11.3908
-11.3287
-11.3903
-11.5924
-11.9492
-12.4762
-13.1898
-14.0981
-15.1952
-16.4656
-17.8836
-19.4123
-21.0083
-22.6253
-24.2152
-25.7371
-27.1521
-28.4199
-29.5126
-30.4198
-31.1475
-31.7076
-32.1151
-32.395
-32.5765
-32.6804
-32.7085
-32.6559
-32.5325
-32.3588
-32.1488
-31.9054
-31.6235
-31.2947
-30.9128
-30.4759
-29.9832
-29.4302
-28.8018
-28.0759
-27.2302
-26.2419
-25.1126
-23.8781
-22.5896
-21.2943
-20.038
-18.852
-17.7162
-16.5421
-15.2344
-13.7588
-12.132
-10.3855
-8.57059
-6.75716
-5.00734
-3.34816
-1.77217
-0.254885
1.22668
2.68841
4.14343
5.60513
7.08269
8.57494
10.0698
11.5495
12.9967
14.397
15.7382
17.0081
18.195
19.2911
20.2941
21.2057
22.0295
22.7689
23.4273
24.0078
24.5118
24.9409
25.2972
25.5846
25.8092
25.9793
26.1026
26.1849
26.2318
26.2496
26.2446
26.2227
26.1889
26.1478
26.1043
26.0627
26.0271
26.0005
25.9846
25.9806
25.9884
26.0073
26.0353
26.0702
26.1095
26.1505
26.1907
26.2278
26.2598
26.2851
26.3026
26.3116
26.3117
26.3028
26.2852