/*--------------------------------*- C++ -*----------------------------------*\
  =========                 |
  \\      /  F ield         | OpenFOAM: The Open Source CFD Toolbox
   \\    /   O peration     | Website:  https://openfoam.org
    \\  /    A nd           | Version:  6
     \\/     M anipulation  |
\*---------------------------------------------------------------------------*/
FoamFile
{
    version     2.0;
    format      ascii;
    class       volScalarField;
    location    "0.05";
    object      pPrime2Mean;
}
// * * * * * * * * * * * * * * * * * * * * * * * * * * * * * * * * * * * * * //

dimensions      [0 4 -4 0 0 0 0];

internalField   nonuniform List<scalar> 
12225
(
8.39815e+06
8.25926e+06
8.12217e+06
7.98974e+06
7.86233e+06
7.73966e+06
7.62141e+06
7.50726e+06
7.39686e+06
7.28981e+06
7.18568e+06
7.08399e+06
6.98416e+06
6.88542e+06
6.78674e+06
6.6865e+06
6.58181e+06
6.46553e+06
8.39826e+06
8.25933e+06
8.12224e+06
7.98981e+06
7.86241e+06
7.73975e+06
7.62152e+06
7.50739e+06
7.39701e+06
7.28999e+06
7.18592e+06
7.0843e+06
6.98457e+06
6.88599e+06
6.78759e+06
6.68788e+06
6.58443e+06
6.47194e+06
8.39832e+06
8.25948e+06
8.12239e+06
7.98997e+06
7.86259e+06
7.73995e+06
7.62175e+06
7.50767e+06
7.39735e+06
7.29041e+06
7.18644e+06
7.08498e+06
6.98547e+06
6.88724e+06
6.78942e+06
6.6908e+06
6.58965e+06
6.48386e+06
8.39851e+06
8.25973e+06
8.12265e+06
7.99024e+06
7.86288e+06
7.74028e+06
7.62214e+06
7.50813e+06
7.3979e+06
7.2911e+06
7.18731e+06
7.0861e+06
6.98695e+06
6.88928e+06
6.79236e+06
6.69533e+06
6.59728e+06
6.49828e+06
8.39884e+06
8.26012e+06
8.12303e+06
7.99064e+06
7.86331e+06
7.74077e+06
7.6227e+06
7.5088e+06
7.39872e+06
7.2921e+06
7.18858e+06
7.08772e+06
6.98909e+06
6.89218e+06
6.79646e+06
6.70142e+06
6.60686e+06
6.51392e+06
8.39961e+06
8.26067e+06
8.12356e+06
7.99119e+06
7.86391e+06
7.74144e+06
7.62349e+06
7.50973e+06
7.39984e+06
7.29348e+06
7.1903e+06
7.08992e+06
6.99196e+06
6.89602e+06
6.80176e+06
6.70897e+06
6.61794e+06
6.53015e+06
8.40036e+06
8.26139e+06
8.12426e+06
7.99192e+06
7.8647e+06
7.74234e+06
7.62452e+06
7.51095e+06
7.40131e+06
7.29529e+06
7.19255e+06
7.09276e+06
6.99562e+06
6.90084e+06
6.80822e+06
6.71783e+06
6.63017e+06
6.54667e+06
8.40146e+06
8.26232e+06
8.12516e+06
7.99285e+06
7.86572e+06
7.74348e+06
7.62584e+06
7.51251e+06
7.40318e+06
7.29757e+06
7.19536e+06
7.0963e+06
7.00011e+06
6.90664e+06
6.81581e+06
6.72783e+06
6.64328e+06
6.56334e+06
8.4028e+06
8.26348e+06
8.12628e+06
7.99402e+06
7.86699e+06
7.74491e+06
7.62748e+06
7.51444e+06
7.4055e+06
7.30037e+06
7.1988e+06
7.10056e+06
7.00547e+06
6.91341e+06
6.82444e+06
6.73881e+06
6.65707e+06
6.5801e+06
8.40451e+06
8.26489e+06
8.12766e+06
7.99546e+06
7.86855e+06
7.74666e+06
7.6295e+06
7.5168e+06
7.4083e+06
7.30375e+06
7.20291e+06
7.1056e+06
7.01168e+06
6.92113e+06
6.83401e+06
6.7506e+06
6.67136e+06
6.59691e+06
8.40626e+06
8.26655e+06
8.12933e+06
7.9972e+06
7.87044e+06
7.74877e+06
7.63192e+06
7.51962e+06
7.41163e+06
7.30773e+06
7.2077e+06
7.11141e+06
7.01875e+06
6.92972e+06
6.84442e+06
6.76308e+06
6.68606e+06
6.61375e+06
8.40775e+06
8.26831e+06
8.13114e+06
7.9991e+06
7.8725e+06
7.75107e+06
7.63454e+06
7.52266e+06
7.41521e+06
7.31196e+06
7.21275e+06
7.11744e+06
7.02597e+06
6.93833e+06
6.85463e+06
6.77505e+06
6.69981e+06
6.62918e+06
8.40964e+06
8.27034e+06
8.13322e+06
8.00128e+06
7.87485e+06
7.75368e+06
7.6375e+06
7.52609e+06
7.4192e+06
7.31666e+06
7.21829e+06
7.124e+06
7.03371e+06
6.94744e+06
6.86525e+06
6.78726e+06
6.71362e+06
6.64447e+06
8.41234e+06
8.27308e+06
8.13599e+06
8.00416e+06
7.87795e+06
7.75711e+06
7.64138e+06
7.53053e+06
7.42435e+06
7.32266e+06
7.2253e+06
7.13219e+06
7.04325e+06
6.95847e+06
6.87788e+06
6.80155e+06
6.72952e+06
6.66184e+06
8.41671e+06
8.27686e+06
8.13968e+06
8.00797e+06
7.88202e+06
7.76159e+06
7.64641e+06
7.53625e+06
7.43092e+06
7.33024e+06
7.23406e+06
7.14227e+06
7.0548e+06
6.97162e+06
6.8927e+06
6.81803e+06
6.74759e+06
6.68133e+06
8.42208e+06
8.28183e+06
8.14454e+06
8.01295e+06
7.88732e+06
7.76738e+06
7.65286e+06
7.54353e+06
7.43919e+06
7.33966e+06
7.24479e+06
7.15445e+06
7.06854e+06
6.987e+06
6.90974e+06
6.83669e+06
6.76778e+06
6.70288e+06
8.42894e+06
8.28827e+06
8.15082e+06
8.01934e+06
7.89407e+06
7.7747e+06
7.66094e+06
7.55257e+06
7.44934e+06
7.35108e+06
7.25761e+06
7.16878e+06
7.08447e+06
7.00455e+06
6.92889e+06
6.85738e+06
6.78989e+06
6.72626e+06
8.43774e+06
8.29644e+06
8.15868e+06
8.02727e+06
7.90238e+06
7.78365e+06
7.67075e+06
7.56341e+06
7.46138e+06
7.36444e+06
7.27241e+06
7.18509e+06
7.10232e+06
7.02393e+06
6.94977e+06
6.87967e+06
6.81346e+06
6.75097e+06
8.4505e+06
8.30647e+06
8.16789e+06
8.03648e+06
7.91201e+06
7.79399e+06
7.68201e+06
7.57575e+06
7.47493e+06
7.37932e+06
7.28867e+06
7.20277e+06
7.12142e+06
7.04443e+06
6.97159e+06
6.90273e+06
6.83764e+06
6.77614e+06
8.45421e+06
8.31225e+06
8.1745e+06
8.04367e+06
7.91981e+06
7.80247e+06
7.69125e+06
7.58584e+06
7.48594e+06
7.39128e+06
7.3016e+06
7.21669e+06
7.1363e+06
7.06023e+06
6.98827e+06
6.92021e+06
6.85585e+06
6.79499e+06
8.45791e+06
8.31603e+06
8.17874e+06
8.04839e+06
7.92501e+06
7.80818e+06
7.6975e+06
7.59266e+06
7.49335e+06
7.39929e+06
7.31023e+06
7.22592e+06
7.14612e+06
7.07061e+06
6.99916e+06
6.93158e+06
6.86765e+06
6.80718e+06
8.45922e+06
8.31831e+06
8.1816e+06
8.05171e+06
7.92875e+06
7.81232e+06
7.70206e+06
7.59763e+06
7.49875e+06
7.40512e+06
7.31648e+06
7.23258e+06
7.15318e+06
7.07805e+06
7.00695e+06
6.93969e+06
6.87605e+06
6.81583e+06
8.46002e+06
8.31975e+06
8.18353e+06
8.05402e+06
7.9314e+06
7.81528e+06
7.70533e+06
7.6012e+06
7.50262e+06
7.40929e+06
7.32094e+06
7.23733e+06
7.15821e+06
7.08333e+06
7.01248e+06
6.94543e+06
6.88198e+06
6.82193e+06
8.46023e+06
8.32064e+06
8.18482e+06
8.05561e+06
7.93325e+06
7.81736e+06
7.70763e+06
7.60372e+06
7.50535e+06
7.41223e+06
7.32409e+06
7.24067e+06
7.16173e+06
7.08703e+06
7.01634e+06
6.94944e+06
6.88612e+06
6.82619e+06
8.46071e+06
8.32124e+06
8.18567e+06
8.05669e+06
7.93451e+06
7.81879e+06
7.70921e+06
7.60546e+06
7.50723e+06
7.41425e+06
7.32625e+06
7.24297e+06
7.16416e+06
7.08957e+06
7.01899e+06
6.95219e+06
6.88897e+06
6.82911e+06
8.46086e+06
8.32159e+06
8.18623e+06
8.0574e+06
7.93536e+06
7.81975e+06
7.71028e+06
7.60662e+06
7.5085e+06
7.41562e+06
7.32771e+06
7.24452e+06
7.16579e+06
7.09128e+06
7.02077e+06
6.95404e+06
6.89087e+06
6.83106e+06
8.46044e+06
8.32174e+06
8.18657e+06
8.05786e+06
7.9359e+06
7.82037e+06
7.71096e+06
7.60738e+06
7.50932e+06
7.4165e+06
7.32865e+06
7.24551e+06
7.16683e+06
7.09238e+06
7.02192e+06
6.95522e+06
6.89209e+06
6.83232e+06
8.4604e+06
8.32184e+06
8.18677e+06
8.05813e+06
7.93622e+06
7.82074e+06
7.71138e+06
7.60783e+06
7.50981e+06
7.41703e+06
7.32922e+06
7.24611e+06
7.16747e+06
7.09304e+06
7.02261e+06
6.95594e+06
6.89283e+06
6.83308e+06
8.4604e+06
8.32188e+06
8.18687e+06
8.05828e+06
7.9364e+06
7.82095e+06
7.71161e+06
7.60808e+06
7.51008e+06
7.41732e+06
7.32952e+06
7.24644e+06
7.16781e+06
7.0934e+06
7.02298e+06
6.95633e+06
6.89323e+06
6.83349e+06
8.46021e+06
8.32189e+06
8.18692e+06
8.05833e+06
7.93647e+06
7.82103e+06
7.7117e+06
7.60818e+06
7.51019e+06
7.41743e+06
7.32965e+06
7.24657e+06
7.16795e+06
7.09355e+06
7.02313e+06
6.95649e+06
6.89339e+06
6.83366e+06
5.46418e+06
5.46375e+06
5.46288e+06
5.46155e+06
5.45976e+06
5.4575e+06
5.45476e+06
5.45155e+06
5.44784e+06
5.44365e+06
5.43896e+06
5.43376e+06
5.42806e+06
5.42184e+06
5.4151e+06
5.40784e+06
5.40006e+06
5.39175e+06
5.38292e+06
5.37357e+06
5.36369e+06
5.3533e+06
5.3424e+06
5.33099e+06
5.31907e+06
5.30665e+06
5.29374e+06
5.28034e+06
5.26645e+06
5.25207e+06
5.23722e+06
5.2219e+06
5.20612e+06
5.18988e+06
5.1732e+06
5.15607e+06
5.13851e+06
5.12052e+06
5.10211e+06
5.08329e+06
5.06405e+06
5.04441e+06
5.02437e+06
5.00392e+06
4.98309e+06
4.96188e+06
4.94029e+06
4.91833e+06
4.89601e+06
4.87333e+06
4.85032e+06
4.82697e+06
4.8033e+06
4.77931e+06
4.75501e+06
4.73041e+06
4.70552e+06
4.68032e+06
4.65484e+06
4.62908e+06
4.60304e+06
4.57672e+06
4.55014e+06
4.52329e+06
4.49617e+06
4.46878e+06
4.44114e+06
4.41323e+06
4.38508e+06
4.35667e+06
4.32803e+06
4.29915e+06
4.27004e+06
4.24071e+06
4.21117e+06
4.18141e+06
4.15146e+06
4.1213e+06
4.09096e+06
4.06043e+06
4.02972e+06
3.99884e+06
3.96778e+06
3.93655e+06
3.90516e+06
3.8736e+06
3.84189e+06
3.81002e+06
3.77799e+06
3.74581e+06
3.71349e+06
3.68102e+06
3.64841e+06
3.61566e+06
3.58279e+06
3.54978e+06
3.51665e+06
3.4834e+06
3.45003e+06
3.41655e+06
3.38296e+06
3.34926e+06
3.31545e+06
3.28154e+06
3.24753e+06
3.21343e+06
3.17923e+06
3.14493e+06
3.11055e+06
3.07609e+06
3.04154e+06
3.0069e+06
2.9722e+06
2.93741e+06
2.90256e+06
2.86763e+06
2.83264e+06
2.79759e+06
2.76249e+06
2.72732e+06
2.69211e+06
2.65685e+06
2.62154e+06
2.5862e+06
2.55082e+06
2.5154e+06
2.47996e+06
2.44449e+06
2.40901e+06
2.3735e+06
2.33799e+06
2.30246e+06
2.26694e+06
2.23141e+06
2.19589e+06
2.16038e+06
2.12488e+06
2.08941e+06
2.05396e+06
2.01854e+06
1.98315e+06
1.94781e+06
1.91251e+06
1.87726e+06
1.84207e+06
1.80695e+06
1.77189e+06
1.7369e+06
1.702e+06
1.66718e+06
1.63246e+06
1.59783e+06
1.56331e+06
1.52891e+06
1.49462e+06
1.46046e+06
1.42644e+06
1.39255e+06
1.35882e+06
1.32525e+06
1.29183e+06
1.2586e+06
1.22554e+06
1.19268e+06
1.16001e+06
1.12756e+06
1.09532e+06
1.06332e+06
1.03156e+06
1.00005e+06
968808
937849
907189
876846
846846
817216
787998
759253
731082
703717
5.46617e+06
5.46573e+06
5.46485e+06
5.46351e+06
5.46171e+06
5.45944e+06
5.45669e+06
5.45346e+06
5.44974e+06
5.44553e+06
5.44081e+06
5.43559e+06
5.42986e+06
5.42361e+06
5.41684e+06
5.40955e+06
5.40173e+06
5.39338e+06
5.38451e+06
5.37511e+06
5.3652e+06
5.35476e+06
5.34381e+06
5.33236e+06
5.32039e+06
5.30793e+06
5.29498e+06
5.28153e+06
5.2676e+06
5.25319e+06
5.2383e+06
5.22295e+06
5.20713e+06
5.19087e+06
5.17415e+06
5.15699e+06
5.1394e+06
5.12137e+06
5.10293e+06
5.08407e+06
5.0648e+06
5.04512e+06
5.02505e+06
5.00458e+06
4.98371e+06
4.96247e+06
4.94085e+06
4.91887e+06
4.89653e+06
4.87383e+06
4.85079e+06
4.82742e+06
4.80373e+06
4.77972e+06
4.7554e+06
4.73078e+06
4.70586e+06
4.68065e+06
4.65515e+06
4.62937e+06
4.60332e+06
4.57699e+06
4.5504e+06
4.52353e+06
4.4964e+06
4.469e+06
4.44134e+06
4.41343e+06
4.38526e+06
4.35684e+06
4.32819e+06
4.2993e+06
4.27018e+06
4.24084e+06
4.21129e+06
4.18153e+06
4.15156e+06
4.1214e+06
4.09105e+06
4.06052e+06
4.02981e+06
3.99891e+06
3.96785e+06
3.93662e+06
3.90522e+06
3.87367e+06
3.84195e+06
3.81007e+06
3.77804e+06
3.74586e+06
3.71353e+06
3.68106e+06
3.64845e+06
3.6157e+06
3.58282e+06
3.54981e+06
3.51668e+06
3.48343e+06
3.45006e+06
3.41657e+06
3.38298e+06
3.34927e+06
3.31547e+06
3.28156e+06
3.24755e+06
3.21344e+06
3.17924e+06
3.14495e+06
3.11056e+06
3.0761e+06
3.04154e+06
3.00691e+06
2.9722e+06
2.93742e+06
2.90256e+06
2.86764e+06
2.83265e+06
2.7976e+06
2.76249e+06
2.72733e+06
2.69211e+06
2.65685e+06
2.62155e+06
2.5862e+06
2.55082e+06
2.51541e+06
2.47996e+06
2.4445e+06
2.40901e+06
2.3735e+06
2.33799e+06
2.30246e+06
2.26694e+06
2.23141e+06
2.19589e+06
2.16038e+06
2.12489e+06
2.08941e+06
2.05396e+06
2.01854e+06
1.98315e+06
1.94781e+06
1.91251e+06
1.87726e+06
1.84207e+06
1.80695e+06
1.77189e+06
1.7369e+06
1.702e+06
1.66718e+06
1.63246e+06
1.59783e+06
1.56331e+06
1.52891e+06
1.49462e+06
1.46046e+06
1.42644e+06
1.39255e+06
1.35882e+06
1.32524e+06
1.29183e+06
1.2586e+06
1.22554e+06
1.19268e+06
1.16001e+06
1.12756e+06
1.09532e+06
1.06332e+06
1.03155e+06
1.00004e+06
968803
937842
907179
876834
846829
817193
787965
759199
730985
703475
5.47013e+06
5.46969e+06
5.46879e+06
5.46744e+06
5.46562e+06
5.46333e+06
5.46056e+06
5.4573e+06
5.45355e+06
5.44929e+06
5.44453e+06
5.43926e+06
5.43347e+06
5.42716e+06
5.42032e+06
5.41295e+06
5.40506e+06
5.39663e+06
5.38768e+06
5.37821e+06
5.36821e+06
5.35769e+06
5.34665e+06
5.3351e+06
5.32305e+06
5.3105e+06
5.29746e+06
5.28393e+06
5.26991e+06
5.25542e+06
5.24045e+06
5.22503e+06
5.20914e+06
5.1928e+06
5.17602e+06
5.15879e+06
5.14113e+06
5.12304e+06
5.10453e+06
5.08561e+06
5.06627e+06
5.04653e+06
5.02639e+06
5.00586e+06
4.98494e+06
4.96364e+06
4.94197e+06
4.91994e+06
4.89754e+06
4.8748e+06
4.85172e+06
4.82831e+06
4.80457e+06
4.78052e+06
4.75615e+06
4.73149e+06
4.70653e+06
4.68129e+06
4.65576e+06
4.62995e+06
4.60387e+06
4.57752e+06
4.5509e+06
4.524e+06
4.49685e+06
4.46942e+06
4.44174e+06
4.4138e+06
4.38561e+06
4.35718e+06
4.3285e+06
4.29959e+06
4.27046e+06
4.2411e+06
4.21153e+06
4.18175e+06
4.15177e+06
4.1216e+06
4.09124e+06
4.06069e+06
4.02997e+06
3.99907e+06
3.968e+06
3.93676e+06
3.90535e+06
3.87379e+06
3.84206e+06
3.81018e+06
3.77815e+06
3.74596e+06
3.71363e+06
3.68115e+06
3.64853e+06
3.61577e+06
3.58288e+06
3.54987e+06
3.51673e+06
3.48348e+06
3.4501e+06
3.41661e+06
3.38302e+06
3.34931e+06
3.3155e+06
3.28159e+06
3.24757e+06
3.21346e+06
3.17926e+06
3.14497e+06
3.11058e+06
3.07611e+06
3.04156e+06
3.00693e+06
2.97222e+06
2.93743e+06
2.90257e+06
2.86765e+06
2.83266e+06
2.79761e+06
2.7625e+06
2.72734e+06
2.69212e+06
2.65686e+06
2.62155e+06
2.58621e+06
2.55083e+06
2.51541e+06
2.47997e+06
2.4445e+06
2.40901e+06
2.37351e+06
2.33799e+06
2.30247e+06
2.26694e+06
2.23141e+06
2.19589e+06
2.16038e+06
2.12489e+06
2.08941e+06
2.05396e+06
2.01854e+06
1.98316e+06
1.94781e+06
1.91251e+06
1.87727e+06
1.84208e+06
1.80695e+06
1.77189e+06
1.7369e+06
1.702e+06
1.66718e+06
1.63246e+06
1.59783e+06
1.56331e+06
1.52891e+06
1.49462e+06
1.46046e+06
1.42644e+06
1.39255e+06
1.35882e+06
1.32524e+06
1.29183e+06
1.25859e+06
1.22554e+06
1.19267e+06
1.16001e+06
1.12755e+06
1.09532e+06
1.06331e+06
1.03155e+06
1.00004e+06
968792
937828
907161
876810
846796
817147
787898
759097
730810
703119
5.47611e+06
5.47565e+06
5.47474e+06
5.47337e+06
5.47152e+06
5.4692e+06
5.46639e+06
5.46309e+06
5.45928e+06
5.45496e+06
5.45012e+06
5.44476e+06
5.43888e+06
5.43246e+06
5.42552e+06
5.41804e+06
5.41003e+06
5.40149e+06
5.39242e+06
5.38282e+06
5.37269e+06
5.36205e+06
5.35089e+06
5.33921e+06
5.32703e+06
5.31435e+06
5.30118e+06
5.28752e+06
5.27337e+06
5.25876e+06
5.24367e+06
5.22813e+06
5.21212e+06
5.19568e+06
5.17878e+06
5.16145e+06
5.14369e+06
5.1255e+06
5.1069e+06
5.08788e+06
5.06846e+06
5.04862e+06
5.02839e+06
5.00777e+06
4.98677e+06
4.96538e+06
4.94363e+06
4.92152e+06
4.89905e+06
4.87624e+06
4.85309e+06
4.8296e+06
4.8058e+06
4.78168e+06
4.75726e+06
4.73254e+06
4.70753e+06
4.68223e+06
4.65666e+06
4.63081e+06
4.60469e+06
4.57829e+06
4.55163e+06
4.5247e+06
4.49751e+06
4.47005e+06
4.44233e+06
4.41436e+06
4.38614e+06
4.35767e+06
4.32896e+06
4.30003e+06
4.27086e+06
4.24148e+06
4.21188e+06
4.18208e+06
4.15208e+06
4.12189e+06
4.09151e+06
4.06095e+06
4.03021e+06
3.9993e+06
3.96821e+06
3.93696e+06
3.90555e+06
3.87397e+06
3.84224e+06
3.81035e+06
3.7783e+06
3.7461e+06
3.71376e+06
3.68127e+06
3.64864e+06
3.61588e+06
3.58298e+06
3.54996e+06
3.51681e+06
3.48355e+06
3.45017e+06
3.41667e+06
3.38307e+06
3.34936e+06
3.31555e+06
3.28163e+06
3.24761e+06
3.2135e+06
3.1793e+06
3.145e+06
3.11061e+06
3.07614e+06
3.04159e+06
3.00695e+06
2.97224e+06
2.93745e+06
2.90259e+06
2.86767e+06
2.83268e+06
2.79762e+06
2.76251e+06
2.72735e+06
2.69213e+06
2.65687e+06
2.62156e+06
2.58622e+06
2.55083e+06
2.51542e+06
2.47997e+06
2.44451e+06
2.40902e+06
2.37351e+06
2.338e+06
2.30247e+06
2.26694e+06
2.23142e+06
2.1959e+06
2.16039e+06
2.12489e+06
2.08941e+06
2.05396e+06
2.01854e+06
1.98316e+06
1.94781e+06
1.91251e+06
1.87727e+06
1.84208e+06
1.80695e+06
1.77189e+06
1.7369e+06
1.702e+06
1.66718e+06
1.63246e+06
1.59783e+06
1.56331e+06
1.52891e+06
1.49462e+06
1.46046e+06
1.42644e+06
1.39255e+06
1.35882e+06
1.32524e+06
1.29183e+06
1.25859e+06
1.22554e+06
1.19267e+06
1.16001e+06
1.12755e+06
1.09531e+06
1.0633e+06
1.03154e+06
1.00002e+06
968776
937807
907134
876774
846748
817081
787804
758955
730579
702711
5.48413e+06
5.48366e+06
5.48273e+06
5.48134e+06
5.47946e+06
5.47709e+06
5.47421e+06
5.47083e+06
5.46693e+06
5.46252e+06
5.45757e+06
5.45209e+06
5.44608e+06
5.43953e+06
5.43244e+06
5.42482e+06
5.41665e+06
5.40795e+06
5.39871e+06
5.38895e+06
5.37866e+06
5.36784e+06
5.35651e+06
5.34466e+06
5.33231e+06
5.31946e+06
5.30612e+06
5.29229e+06
5.27798e+06
5.26319e+06
5.24795e+06
5.23224e+06
5.21608e+06
5.19948e+06
5.18244e+06
5.16496e+06
5.14707e+06
5.12875e+06
5.11002e+06
5.09088e+06
5.07133e+06
5.05138e+06
5.03103e+06
5.0103e+06
4.98918e+06
4.96768e+06
4.94582e+06
4.9236e+06
4.90103e+06
4.87812e+06
4.85488e+06
4.8313e+06
4.80741e+06
4.78321e+06
4.75871e+06
4.73392e+06
4.70884e+06
4.68348e+06
4.65784e+06
4.63193e+06
4.60575e+06
4.57931e+06
4.55259e+06
4.52561e+06
4.49837e+06
4.47087e+06
4.4431e+06
4.41509e+06
4.38682e+06
4.35832e+06
4.32957e+06
4.30059e+06
4.27139e+06
4.24197e+06
4.21235e+06
4.18252e+06
4.15249e+06
4.12227e+06
4.09187e+06
4.06128e+06
4.03052e+06
3.99959e+06
3.96849e+06
3.93723e+06
3.9058e+06
3.87421e+06
3.84246e+06
3.81056e+06
3.7785e+06
3.7463e+06
3.71394e+06
3.68144e+06
3.64879e+06
3.61602e+06
3.58311e+06
3.55007e+06
3.51692e+06
3.48365e+06
3.45026e+06
3.41676e+06
3.38315e+06
3.34943e+06
3.31561e+06
3.28169e+06
3.24767e+06
3.21355e+06
3.17934e+06
3.14504e+06
3.11065e+06
3.07618e+06
3.04162e+06
3.00698e+06
2.97227e+06
2.93748e+06
2.90262e+06
2.86769e+06
2.8327e+06
2.79764e+06
2.76253e+06
2.72736e+06
2.69215e+06
2.65688e+06
2.62158e+06
2.58623e+06
2.55084e+06
2.51543e+06
2.47998e+06
2.44451e+06
2.40903e+06
2.37352e+06
2.338e+06
2.30248e+06
2.26695e+06
2.23142e+06
2.1959e+06
2.16039e+06
2.12489e+06
2.08942e+06
2.05397e+06
2.01855e+06
1.98316e+06
1.94782e+06
1.91252e+06
1.87727e+06
1.84208e+06
1.80695e+06
1.77189e+06
1.73691e+06
1.702e+06
1.66718e+06
1.63246e+06
1.59783e+06
1.56331e+06
1.52891e+06
1.49462e+06
1.46046e+06
1.42644e+06
1.39255e+06
1.35882e+06
1.32524e+06
1.29183e+06
1.25859e+06
1.22553e+06
1.19267e+06
1.16e+06
1.12754e+06
1.0953e+06
1.06329e+06
1.03152e+06
1.00001e+06
968755
937780
907099
876728
846686
816996
787685
758781
730312
702284
5.49427e+06
5.49378e+06
5.49283e+06
5.49139e+06
5.48946e+06
5.48701e+06
5.48405e+06
5.48057e+06
5.47655e+06
5.472e+06
5.46692e+06
5.46129e+06
5.45511e+06
5.44839e+06
5.44112e+06
5.4333e+06
5.42494e+06
5.41604e+06
5.40659e+06
5.39662e+06
5.38611e+06
5.37508e+06
5.36353e+06
5.35147e+06
5.3389e+06
5.32583e+06
5.31228e+06
5.29823e+06
5.28371e+06
5.26872e+06
5.25327e+06
5.23736e+06
5.221e+06
5.20421e+06
5.18698e+06
5.16933e+06
5.15126e+06
5.13278e+06
5.11389e+06
5.09459e+06
5.07489e+06
5.05479e+06
5.0343e+06
5.01342e+06
4.99216e+06
4.97053e+06
4.94853e+06
4.92618e+06
4.90348e+06
4.88045e+06
4.85708e+06
4.8334e+06
4.8094e+06
4.78509e+06
4.7605e+06
4.73561e+06
4.71044e+06
4.685e+06
4.65929e+06
4.63331e+06
4.60707e+06
4.58055e+06
4.55378e+06
4.52674e+06
4.49943e+06
4.47187e+06
4.44406e+06
4.41599e+06
4.38767e+06
4.35911e+06
4.33032e+06
4.30129e+06
4.27205e+06
4.24258e+06
4.21292e+06
4.18305e+06
4.15299e+06
4.12274e+06
4.09231e+06
4.0617e+06
4.03091e+06
3.99996e+06
3.96883e+06
3.93755e+06
3.9061e+06
3.8745e+06
3.84274e+06
3.81082e+06
3.77875e+06
3.74653e+06
3.71416e+06
3.68165e+06
3.64899e+06
3.61619e+06
3.58327e+06
3.55022e+06
3.51705e+06
3.48377e+06
3.45037e+06
3.41686e+06
3.38324e+06
3.34952e+06
3.31569e+06
3.28176e+06
3.24773e+06
3.21361e+06
3.1794e+06
3.14509e+06
3.1107e+06
3.07622e+06
3.04166e+06
3.00702e+06
2.9723e+06
2.93751e+06
2.90265e+06
2.86772e+06
2.83272e+06
2.79767e+06
2.76255e+06
2.72738e+06
2.69217e+06
2.6569e+06
2.62159e+06
2.58624e+06
2.55086e+06
2.51544e+06
2.47999e+06
2.44452e+06
2.40903e+06
2.37353e+06
2.33801e+06
2.30248e+06
2.26696e+06
2.23143e+06
2.19591e+06
2.16039e+06
2.1249e+06
2.08942e+06
2.05397e+06
2.01855e+06
1.98316e+06
1.94782e+06
1.91252e+06
1.87727e+06
1.84208e+06
1.80695e+06
1.77189e+06
1.73691e+06
1.702e+06
1.66718e+06
1.63246e+06
1.59783e+06
1.56331e+06
1.52891e+06
1.49462e+06
1.46046e+06
1.42644e+06
1.39255e+06
1.35882e+06
1.32524e+06
1.29183e+06
1.25859e+06
1.22553e+06
1.19266e+06
1.15999e+06
1.12753e+06
1.09529e+06
1.06328e+06
1.03151e+06
999988
968729
937747
907056
876672
846612
816896
787546
758583
730023
701853
5.50659e+06
5.50608e+06
5.50509e+06
5.50359e+06
5.50157e+06
5.49903e+06
5.49595e+06
5.49233e+06
5.48817e+06
5.48346e+06
5.4782e+06
5.47238e+06
5.466e+06
5.45906e+06
5.45157e+06
5.44352e+06
5.43491e+06
5.42576e+06
5.41606e+06
5.40583e+06
5.39506e+06
5.38376e+06
5.37195e+06
5.35962e+06
5.34679e+06
5.33346e+06
5.31964e+06
5.30534e+06
5.29056e+06
5.27532e+06
5.25962e+06
5.24347e+06
5.22688e+06
5.20986e+06
5.19241e+06
5.17455e+06
5.15627e+06
5.13759e+06
5.1185e+06
5.09902e+06
5.07914e+06
5.05886e+06
5.03819e+06
5.01714e+06
4.99572e+06
4.97392e+06
4.95176e+06
4.92925e+06
4.9064e+06
4.88321e+06
4.8597e+06
4.83588e+06
4.81175e+06
4.78732e+06
4.76261e+06
4.73761e+06
4.71235e+06
4.68681e+06
4.66101e+06
4.63494e+06
4.60862e+06
4.58203e+06
4.55518e+06
4.52807e+06
4.5007e+06
4.47307e+06
4.44519e+06
4.41706e+06
4.38868e+06
4.36006e+06
4.3312e+06
4.30212e+06
4.27282e+06
4.24331e+06
4.2136e+06
4.18369e+06
4.15358e+06
4.1233e+06
4.09283e+06
4.06218e+06
4.03137e+06
4.00039e+06
3.96924e+06
3.93793e+06
3.90646e+06
3.87484e+06
3.84306e+06
3.81113e+06
3.77905e+06
3.74681e+06
3.71443e+06
3.68189e+06
3.64922e+06
3.6164e+06
3.58346e+06
3.5504e+06
3.51722e+06
3.48392e+06
3.45051e+06
3.41698e+06
3.38336e+06
3.34962e+06
3.31579e+06
3.28185e+06
3.24782e+06
3.21369e+06
3.17947e+06
3.14515e+06
3.11076e+06
3.07627e+06
3.04171e+06
3.00706e+06
2.97234e+06
2.93755e+06
2.90268e+06
2.86775e+06
2.83275e+06
2.79769e+06
2.76258e+06
2.72741e+06
2.69219e+06
2.65692e+06
2.62161e+06
2.58626e+06
2.55087e+06
2.51545e+06
2.48001e+06
2.44454e+06
2.40905e+06
2.37354e+06
2.33802e+06
2.30249e+06
2.26696e+06
2.23143e+06
2.19591e+06
2.1604e+06
2.1249e+06
2.08943e+06
2.05397e+06
2.01855e+06
1.98317e+06
1.94782e+06
1.91252e+06
1.87727e+06
1.84208e+06
1.80695e+06
1.77189e+06
1.73691e+06
1.702e+06
1.66719e+06
1.63246e+06
1.59783e+06
1.56332e+06
1.52891e+06
1.49462e+06
1.46046e+06
1.42644e+06
1.39255e+06
1.35882e+06
1.32524e+06
1.29183e+06
1.25859e+06
1.22553e+06
1.19266e+06
1.15999e+06
1.12753e+06
1.09528e+06
1.06327e+06
1.03149e+06
999965
968700
937709
907007
876607
846527
816782
787392
758369
729722
701429
5.52117e+06
5.52063e+06
5.51957e+06
5.51799e+06
5.51587e+06
5.5132e+06
5.50998e+06
5.5062e+06
5.50185e+06
5.49694e+06
5.49146e+06
5.48541e+06
5.47878e+06
5.47158e+06
5.46381e+06
5.45548e+06
5.44659e+06
5.43713e+06
5.42713e+06
5.41659e+06
5.4055e+06
5.39389e+06
5.38176e+06
5.36912e+06
5.35597e+06
5.34233e+06
5.3282e+06
5.31359e+06
5.29852e+06
5.28298e+06
5.267e+06
5.25057e+06
5.2337e+06
5.21641e+06
5.19871e+06
5.18059e+06
5.16208e+06
5.14316e+06
5.12385e+06
5.10415e+06
5.08406e+06
5.06358e+06
5.04271e+06
5.02146e+06
4.99984e+06
4.97785e+06
4.95551e+06
4.93281e+06
4.90977e+06
4.88641e+06
4.86273e+06
4.83874e+06
4.81445e+06
4.78988e+06
4.76503e+06
4.73992e+06
4.71453e+06
4.68889e+06
4.66299e+06
4.63683e+06
4.61041e+06
4.58373e+06
4.5568e+06
4.52961e+06
4.50216e+06
4.47446e+06
4.4465e+06
4.41829e+06
4.38984e+06
4.36115e+06
4.33223e+06
4.30309e+06
4.27372e+06
4.24415e+06
4.21439e+06
4.18442e+06
4.15427e+06
4.12394e+06
4.09344e+06
4.06275e+06
4.0319e+06
4.00089e+06
3.96971e+06
3.93837e+06
3.90688e+06
3.87524e+06
3.84344e+06
3.81149e+06
3.77939e+06
3.74714e+06
3.71473e+06
3.68218e+06
3.64948e+06
3.61665e+06
3.58369e+06
3.55061e+06
3.5174e+06
3.48409e+06
3.45066e+06
3.41713e+06
3.38349e+06
3.34974e+06
3.3159e+06
3.28195e+06
3.24791e+06
3.21377e+06
3.17954e+06
3.14523e+06
3.11082e+06
3.07633e+06
3.04176e+06
3.00712e+06
2.97239e+06
2.93759e+06
2.90272e+06
2.86779e+06
2.83279e+06
2.79772e+06
2.76261e+06
2.72743e+06
2.69221e+06
2.65694e+06
2.62163e+06
2.58628e+06
2.55089e+06
2.51547e+06
2.48002e+06
2.44455e+06
2.40906e+06
2.37355e+06
2.33803e+06
2.3025e+06
2.26697e+06
2.23144e+06
2.19592e+06
2.16041e+06
2.12491e+06
2.08943e+06
2.05398e+06
2.01856e+06
1.98317e+06
1.94782e+06
1.91252e+06
1.87728e+06
1.84208e+06
1.80696e+06
1.7719e+06
1.73691e+06
1.70201e+06
1.66719e+06
1.63246e+06
1.59784e+06
1.56332e+06
1.52891e+06
1.49462e+06
1.46046e+06
1.42644e+06
1.39255e+06
1.35882e+06
1.32524e+06
1.29182e+06
1.25858e+06
1.22552e+06
1.19265e+06
1.15998e+06
1.12752e+06
1.09527e+06
1.06325e+06
1.03147e+06
999939
968667
937667
906952
876536
846434
816659
787226
758145
729416
701017
5.5381e+06
5.53751e+06
5.53637e+06
5.53469e+06
5.53244e+06
5.52962e+06
5.52622e+06
5.52224e+06
5.51767e+06
5.51251e+06
5.50676e+06
5.50043e+06
5.4935e+06
5.48599e+06
5.4779e+06
5.46923e+06
5.45998e+06
5.45018e+06
5.43981e+06
5.4289e+06
5.41745e+06
5.40546e+06
5.39296e+06
5.37995e+06
5.36643e+06
5.35243e+06
5.33794e+06
5.32298e+06
5.30756e+06
5.29169e+06
5.27537e+06
5.25862e+06
5.24144e+06
5.22384e+06
5.20585e+06
5.18745e+06
5.16866e+06
5.14948e+06
5.12992e+06
5.10997e+06
5.08964e+06
5.06892e+06
5.04783e+06
5.02635e+06
5.00451e+06
4.9823e+06
4.95974e+06
4.93683e+06
4.91359e+06
4.89002e+06
4.86614e+06
4.84197e+06
4.81751e+06
4.79278e+06
4.76778e+06
4.74251e+06
4.717e+06
4.69123e+06
4.66522e+06
4.63895e+06
4.61242e+06
4.58565e+06
4.55862e+06
4.53134e+06
4.5038e+06
4.47601e+06
4.44797e+06
4.41969e+06
4.39116e+06
4.36239e+06
4.33339e+06
4.30417e+06
4.27474e+06
4.24511e+06
4.21528e+06
4.18526e+06
4.15506e+06
4.12468e+06
4.09413e+06
4.0634e+06
4.03251e+06
4.00146e+06
3.97025e+06
3.93888e+06
3.90736e+06
3.87568e+06
3.84386e+06
3.81189e+06
3.77977e+06
3.74749e+06
3.71507e+06
3.6825e+06
3.64978e+06
3.61693e+06
3.58394e+06
3.55084e+06
3.51762e+06
3.48429e+06
3.45085e+06
3.4173e+06
3.38364e+06
3.34988e+06
3.31602e+06
3.28207e+06
3.24802e+06
3.21387e+06
3.17963e+06
3.14531e+06
3.1109e+06
3.0764e+06
3.04183e+06
3.00717e+06
2.97244e+06
2.93764e+06
2.90277e+06
2.86783e+06
2.83283e+06
2.79776e+06
2.76264e+06
2.72747e+06
2.69224e+06
2.65697e+06
2.62165e+06
2.5863e+06
2.55091e+06
2.51549e+06
2.48004e+06
2.44457e+06
2.40907e+06
2.37356e+06
2.33804e+06
2.30251e+06
2.26698e+06
2.23145e+06
2.19593e+06
2.16041e+06
2.12491e+06
2.08944e+06
2.05398e+06
2.01856e+06
1.98317e+06
1.94783e+06
1.91253e+06
1.87728e+06
1.84209e+06
1.80696e+06
1.7719e+06
1.73691e+06
1.70201e+06
1.66719e+06
1.63246e+06
1.59784e+06
1.56332e+06
1.52891e+06
1.49462e+06
1.46046e+06
1.42644e+06
1.39255e+06
1.35881e+06
1.32524e+06
1.29182e+06
1.25858e+06
1.22552e+06
1.19264e+06
1.15997e+06
1.12751e+06
1.09526e+06
1.06323e+06
1.03145e+06
999910
968631
937621
906893
876460
846334
816528
787053
757916
729112
700620
5.55747e+06
5.55683e+06
5.55561e+06
5.5538e+06
5.5514e+06
5.54839e+06
5.54478e+06
5.54055e+06
5.53571e+06
5.53026e+06
5.52419e+06
5.51752e+06
5.51023e+06
5.50235e+06
5.49387e+06
5.48479e+06
5.47514e+06
5.46491e+06
5.45413e+06
5.44278e+06
5.4309e+06
5.41849e+06
5.40555e+06
5.39211e+06
5.37817e+06
5.36375e+06
5.34885e+06
5.33349e+06
5.31767e+06
5.30141e+06
5.28472e+06
5.2676e+06
5.25007e+06
5.23214e+06
5.21381e+06
5.1951e+06
5.176e+06
5.15653e+06
5.13668e+06
5.11645e+06
5.09584e+06
5.07486e+06
5.05351e+06
5.03178e+06
5.00969e+06
4.98723e+06
4.96443e+06
4.94129e+06
4.91781e+06
4.89402e+06
4.86993e+06
4.84555e+06
4.8209e+06
4.79598e+06
4.77081e+06
4.7454e+06
4.71973e+06
4.69383e+06
4.66768e+06
4.64129e+06
4.61465e+06
4.58777e+06
4.56063e+06
4.53325e+06
4.50561e+06
4.47773e+06
4.4496e+06
4.42122e+06
4.3926e+06
4.36375e+06
4.33467e+06
4.30538e+06
4.27587e+06
4.24617e+06
4.21628e+06
4.1862e+06
4.15594e+06
4.12551e+06
4.0949e+06
4.06413e+06
4.0332e+06
4.0021e+06
3.97085e+06
3.93944e+06
3.90789e+06
3.87618e+06
3.84433e+06
3.81233e+06
3.78018e+06
3.74789e+06
3.71544e+06
3.68285e+06
3.65011e+06
3.61723e+06
3.58423e+06
3.5511e+06
3.51786e+06
3.48451e+06
3.45105e+06
3.41748e+06
3.38381e+06
3.35004e+06
3.31617e+06
3.2822e+06
3.24814e+06
3.21398e+06
3.17974e+06
3.1454e+06
3.11098e+06
3.07648e+06
3.0419e+06
3.00724e+06
2.97251e+06
2.9377e+06
2.90282e+06
2.86788e+06
2.83287e+06
2.7978e+06
2.76268e+06
2.7275e+06
2.69227e+06
2.657e+06
2.62168e+06
2.58633e+06
2.55093e+06
2.51551e+06
2.48006e+06
2.44458e+06
2.40909e+06
2.37358e+06
2.33806e+06
2.30253e+06
2.26699e+06
2.23146e+06
2.19594e+06
2.16042e+06
2.12492e+06
2.08944e+06
2.05399e+06
2.01857e+06
1.98318e+06
1.94783e+06
1.91253e+06
1.87728e+06
1.84209e+06
1.80696e+06
1.7719e+06
1.73692e+06
1.70201e+06
1.66719e+06
1.63246e+06
1.59784e+06
1.56332e+06
1.52891e+06
1.49462e+06
1.46046e+06
1.42644e+06
1.39255e+06
1.35881e+06
1.32523e+06
1.29182e+06
1.25857e+06
1.22551e+06
1.19264e+06
1.15996e+06
1.12749e+06
1.09524e+06
1.06322e+06
1.03142e+06
999880
968592
937571
906830
876379
846229
816393
786877
757685
728813
700241
5.57947e+06
5.57876e+06
5.57744e+06
5.57548e+06
5.5729e+06
5.56967e+06
5.56579e+06
5.56127e+06
5.5561e+06
5.55029e+06
5.54385e+06
5.53677e+06
5.52906e+06
5.52073e+06
5.51179e+06
5.50224e+06
5.49211e+06
5.48139e+06
5.4701e+06
5.45826e+06
5.44588e+06
5.43296e+06
5.41953e+06
5.4056e+06
5.39118e+06
5.37628e+06
5.36091e+06
5.34509e+06
5.32883e+06
5.31214e+06
5.29502e+06
5.2775e+06
5.25957e+06
5.24126e+06
5.22257e+06
5.2035e+06
5.18406e+06
5.16425e+06
5.14407e+06
5.12353e+06
5.10261e+06
5.08133e+06
5.05969e+06
5.03767e+06
5.0153e+06
4.99258e+06
4.96952e+06
4.94612e+06
4.9224e+06
4.89838e+06
4.87406e+06
4.84946e+06
4.8246e+06
4.79949e+06
4.77413e+06
4.74854e+06
4.72272e+06
4.69666e+06
4.67037e+06
4.64384e+06
4.61707e+06
4.59006e+06
4.56281e+06
4.53531e+06
4.50757e+06
4.47959e+06
4.45135e+06
4.42288e+06
4.39417e+06
4.36522e+06
4.33606e+06
4.30668e+06
4.2771e+06
4.24733e+06
4.21737e+06
4.18723e+06
4.15691e+06
4.12642e+06
4.09576e+06
4.06494e+06
4.03395e+06
4.00281e+06
3.97151e+06
3.94007e+06
3.90847e+06
3.87673e+06
3.84484e+06
3.81281e+06
3.78064e+06
3.74832e+06
3.71585e+06
3.68323e+06
3.65046e+06
3.61756e+06
3.58453e+06
3.55138e+06
3.51812e+06
3.48475e+06
3.45127e+06
3.41769e+06
3.384e+06
3.35021e+06
3.31632e+06
3.28234e+06
3.24827e+06
3.2141e+06
3.17985e+06
3.1455e+06
3.11108e+06
3.07657e+06
3.04198e+06
3.00731e+06
2.97257e+06
2.93776e+06
2.90288e+06
2.86793e+06
2.83292e+06
2.79785e+06
2.76272e+06
2.72754e+06
2.69231e+06
2.65703e+06
2.62171e+06
2.58635e+06
2.55096e+06
2.51553e+06
2.48008e+06
2.4446e+06
2.40911e+06
2.37359e+06
2.33807e+06
2.30254e+06
2.267e+06
2.23147e+06
2.19595e+06
2.16043e+06
2.12493e+06
2.08945e+06
2.054e+06
2.01857e+06
1.98319e+06
1.94784e+06
1.91254e+06
1.87729e+06
1.84209e+06
1.80697e+06
1.7719e+06
1.73692e+06
1.70201e+06
1.66719e+06
1.63247e+06
1.59784e+06
1.56332e+06
1.52891e+06
1.49462e+06
1.46046e+06
1.42644e+06
1.39255e+06
1.35881e+06
1.32523e+06
1.29181e+06
1.25857e+06
1.22551e+06
1.19263e+06
1.15995e+06
1.12748e+06
1.09523e+06