/*--------------------------------*- C++ -*----------------------------------*\
  =========                 |
  \\      /  F ield         | OpenFOAM: The Open Source CFD Toolbox
   \\    /   O peration     | Website:  https://openfoam.org
    \\  /    A nd           | Version:  6
     \\/     M anipulation  |
\*---------------------------------------------------------------------------*/
FoamFile
{
    version     2.0;
    format      ascii;
    class       volScalarField;
    location    "0.05";
    object      s;
}
// * * * * * * * * * * * * * * * * * * * * * * * * * * * * * * * * * * * * * //

dimensions      [0 0 0 0 0 0 0];

internalField   nonuniform List<scalar> 
12225
(
1
1
1
1
1
1
1
1
1
1
1
1
1
1
1
1
1
1
1
1
1
1
1
1
1
1
1
1
1
1
1
1
1
1
1
1
1
1
1
1
1
1
1
1
1
1
1
1
1
1
1
1
1
1
1
1
1
1
1
1
1
1
1
1
1
1
1
1
1
1
1
1
1
1
1
1
1
1
1
1
1
1
1
1
1
1
1
1
1
1
1
1
1
1
1
1
1
1
1
1
1
1
1
1
1
1
1
1
1
1
1
1
1
1
1
1
1
1
1
1
1
1
1
1
1
1
1
1
1
1
1
1
1
1
1
1
1
1
1
1
1
1
1
1
1
1
1
1
1
1
1
1
1
1
1
1
1
1
1
1
1
1
1
1
1
1
1
1
1
1
1
1
1
1
1
1
1
1
1
1
1
1
1
1
1
1
1
1
1
1
1
1
1
1
1
1
1
1
1
1
1
1
1
1
1
1
1
1
1
1
1
1
1
1
1
1
1
1
1
1
1
1
1
1
1
1
1
1
1
1
1
1
1
1
1
1
1
1
1
1
1
1
1
1
1
1
1
1
1
1
1
1
1
1
1
1
1
1
1
1
1
1
1
1
1
1
1
1
1
1
1
1
1
1
1
1
1
1
1
1
1
1
1
1
1
1
1
1
1
1
1
1
1
1
1
1
1
1
1
1
1
1
1
1
1
1
1
1
1
1
1
1
1
1
1
1
1
1
1
1
1
1
1
1
1
1
1
1
1
1
1
1
1
1
1
1
1
1
1
1
1
1
1
1
1
1
1
1
1
1
1
1
1
1
1
1
1
1
1
1
1
1
1
1
1
1
1
1
1
1
1
1
1
1
1
1
1
1
1
1
1
1
1
1
1
1
1
1
1
1
1
1
1
1
1
1
1
1
1
1
1
1
1
1
1
1
1
1
1
1
1
1
1
1
1
1
1
1
1
1
1
1
1
1
1
1
1
1
1
1
1
1
1
1
1
1
1
1
1
1
1
1
1
1
1
1
1
1
1
1
1
1
1
1
1
1
1
1
1
1
1
1
1
1
1
1
1
1
1
1
1
1
1
1
1
1
1
1
1
1
1
1
1
1
1
1
1
1
1
1
1
1
1
1
1
1
1
1
1
1
1
1
1
1
1
1
1
1
1
1
1
1
1
1
1
1
1
1
1
1
1
1
1
1
1
1
1
1
1
1
1
1
1
1
1
1
1
1
1
1
0.67964
0.74814
0.746936
0.731759
0.709312
0.688086
0.677788
0.669775
0.667974
0.668264
0.669668
0.673829
0.67831
0.680837
0.682737
0.684441
0.68544
0.686136
0.68727
0.688335
0.68901
0.689349
0.689333
0.689171
0.688777
0.688393
0.68821
0.68821
0.688324
0.688804
0.689742
0.69182
0.694035
0.696615
0.702583
0.706067
0.710742
0.717644
0.722068
0.732424
0.743858
0.718233
0.578187
0.522115
0.527169
0.551795
0.589992
0.622921
0.643756
0.656816
0.662464
0.647814
0.61472
0.608853
0.624657
0.650676
0.705594
0.812244
0.867306
0.886022
0.894994
0.899474
0.902512
0.905395
0.907886
0.909037
0.910078
0.911608
0.912956
0.913842
0.914336
0.914705
0.914885
0.914927
0.91493
0.91486
0.914649
0.914287
0.913818
0.913255
0.912497
0.911441
0.910184
0.908964
0.907776
0.906303
0.904401
0.902328
0.900267
0.89812
0.895828
0.893338
0.890528
0.887495
0.885119
0.88329
0.881845
0.880513
0.87946
0.879
0.878886
0.879379
0.879968
0.880809
0.882199
0.884062
0.886344
0.888871
0.891721
0.895417
0.898926
0.90281
0.906918
0.910656
0.91457
0.918007
0.921182
0.924323
0.927387
0.930337
0.933149
0.935812
0.938307
0.940598
0.942717
0.944625
0.945944
0.947008
0.948006
0.948982
0.949946
0.950881
0.951767
0.952601
0.953388
0.954118
0.954767
0.955317
0.955822
0.956312
0.956792
0.957239
0.957594
0.957782
0.957787
0.957452
0.956123
0.952478
0.945604
0.935745
0.923721
0.912064
0.903305
0.897774
0.894642
0.893319
0.89307
0.89329
0.894168
0.894535
0.894467
0.893574
0.888743
0.867681
0.784767
0.561828
0.347995
0.194961
0.09925
0.0463593
0.0200541
0.00807787
0.00302823
0.00105217
0.000354978
0.000179986
0.000107248
6.01306e-05
3.19489e-05
-0.00665231
0.595839
0.611574
0.616895
0.62525
0.63097
0.633864
0.63472
0.637068
0.641895
0.645309
0.650841
0.654662
0.654557
0.653682
0.651608
0.648442
0.643855
0.638293
0.63188
0.625315
0.618042
0.609695
0.600356
0.590159
0.580062
0.570768
0.563498
0.557275
0.551447
0.548892
0.548851
0.54994
0.553962
0.558201
0.565769
0.580091
0.590822
0.617424
0.639583
0.668282
0.716127
0.720285
0.706096
0.670477
0.574896
0.522161
0.529981
0.58752
0.638398
0.665704
0.689858
0.671364
0.633119
0.6538
0.692345
0.801212
0.828832
0.8529
0.865031
0.868599
0.864973
0.859313
0.854861
0.851982
0.850408
0.849592
0.849195
0.849067
0.849289
0.849261
0.849254
0.849127
0.848407
0.846732
0.844306
0.841012
0.83703
0.83349
0.829935
0.825256
0.819874
0.814648
0.809763
0.804899
0.799733
0.794911
0.790806
0.786619
0.782949
0.780388
0.778488
0.777451
0.777025
0.776936
0.777274
0.777768
0.778312
0.778682
0.778819
0.778848
0.778753
0.778639
0.778318
0.777772
0.777023
0.776512
0.776021
0.775556
0.775231
0.775321
0.77596
0.777555
0.780382
0.784487
0.790264
0.797859
0.807148
0.817682
0.828646
0.83897
0.848105
0.856043
0.863346
0.869976
0.875832
0.880951
0.885817
0.890219
0.894049
0.897358
0.900241
0.902803
0.905165
0.90745
0.909772
0.912217
0.914841
0.917666
0.920657
0.923825
0.927217
0.931005
0.935377
0.94038
0.945865
0.951761
0.958165
0.965222
0.97237
0.977964
0.981008
0.981936
0.981395
0.977061
0.960826
0.939047
0.923535
0.914594
0.910571
0.9092
0.908549
0.90727
0.904341
0.901178
0.894866
0.88096
0.84629
0.808667
0.786609
0.77363
0.748858
0.705252
0.647732
0.594901
0.554187
0.530526
0.514884
0.497507
0.462706
0.326528
0.470294
0.531285
0.596905
0.63166
0.647824
0.662045
0.666244
0.670871
0.670275
0.667873
0.662078
0.650956
0.635761
0.615721
0.59273
0.57003
0.548129
0.527971
0.508877
0.490839
0.47304
0.456606
0.441024
0.427133
0.416308
0.407439
0.402022
0.400553
0.400936
0.403026
0.408353
0.421182
0.434837
0.445464
0.465389
0.484698
0.495179
0.516427
0.543591
0.562262
0.603688
0.671917
0.696524
0.69596
0.684474
0.648408
0.570175
0.549241
0.541937
0.600584
0.678819
0.70092
0.678512
0.74707
0.803401
0.815723
0.824453
0.828378
0.804106
0.783059
0.762799
0.748635
0.740835
0.736272
0.734368
0.733838
0.73503
0.737008
0.738619
0.741095
0.742647
0.744395
0.745618
0.746209
0.746763
0.746835
0.746729
0.746624
0.746596
0.74673
0.747066
0.74746
0.748049
0.748898
0.750338
0.752181
0.754507
0.757243
0.760432
0.764257
0.768944
0.77447
0.780813
0.788612
0.796553
0.803936
0.810357
0.815495
0.819099
0.821304
0.822156
0.821514
0.819297
0.81575
0.81072
0.804518
0.797309
0.789387
0.781144
0.773201
0.76628
0.759895
0.753751
0.74835
0.7441
0.741361
0.740295
0.740637
0.743502
0.750454
0.760907
0.774283
0.789094
0.804007
0.818137
0.830115
0.839562
0.847223
0.8535
0.858633
0.862858
0.86642
0.869566
0.872521
0.875472
0.87856
0.881875
0.885456
0.88931
0.893412
0.897698
0.901944
0.905888
0.909394
0.912502
0.915427
0.918766
0.92309
0.929504
0.939675
0.953158
0.966944
0.977623
0.982885
0.984177
0.983443
0.97736
0.95765
0.941376
0.933175
0.929807
0.92851
0.927682
0.926345
0.923263
0.914161
0.902324
0.895271
0.89315
0.893307
0.895599
0.900429
0.901487
0.901007
0.897074
0.888419
0.878175
0.871116
0.8623
0.815995
0.717943
0.737724
0.732385
0.727242
0.718385
0.708498
0.695575
0.674546
0.651556
0.603399
0.5489
0.526072
0.507822
0.49295
0.479042
0.464189
0.44841
0.431973
0.414981
0.398667
0.383495
0.370486
0.359712
0.351738
0.346667
0.344622
0.344158
0.344698
0.347141
0.352645
0.363755
0.375959
0.38838
0.402593
0.419363
0.431946
0.441634
0.460438
0.484464
0.504273
0.52221
0.555368
0.62999
0.674308
0.685374
0.684099
0.672054
0.63975
0.588711
0.59143
0.615915
0.695358
0.709668
0.775157
0.800192
0.803368
0.781568
0.752066
0.727755
0.713319
0.704424
0.698834
0.696268
0.695259
0.695137
0.697195
0.700416
0.703718
0.707124
0.710625
0.714032
0.717616
0.721168
0.724437
0.727732
0.731111
0.734628
0.738182
0.741772
0.745503
0.74948
0.754703
0.76115
0.769386
0.779832
0.792763
0.808472
0.827647
0.849788
0.869322
0.887579
0.903982
0.91653
0.925391
0.931247
0.934941
0.937294
0.938472
0.939003
0.939208
0.939276
0.93911
0.938916
0.938314
0.937389
0.935612
0.932685
0.928101
0.921295
0.911455
0.897507
0.879742
0.858244
0.833392
0.806418
0.779556
0.757192
0.741883
0.730953
0.724409
0.721797
0.721661
0.723517
0.728377
0.735731
0.745738
0.757316
0.769216
0.780739
0.791542
0.801485
0.81057
0.818857
0.826498
0.833736
0.840804
0.848108
0.855871
0.864222
0.873305
0.88296
0.892549
0.901559
0.909674
0.916326
0.921108
0.923653
0.924231
0.923982
0.92397
0.926806
0.936645
0.95022
0.965456
0.977629
0.983193
0.984007
0.982268
0.971507
0.954955
0.946525
0.943428
0.942541
0.942076
0.941183
0.93871
0.929763
0.914188
0.904685
0.901088
0.900695
0.901815
0.908264
0.923191
0.934126
0.942532
0.949998
0.955231
0.955704
0.94793
0.775309
0.75627
0.71191
0.676435
0.634798
0.590655
0.562217
0.546481
0.53834
0.526814
0.507806
0.48833
0.469991
0.455179
0.438928
0.42275
0.407982
0.393547
0.381308
0.371483
0.363547
0.357625
0.354729
0.354508
0.355558
0.357236
0.359193
0.362212
0.367551
0.37494
0.382369
0.390938
0.399804
0.407306
0.41361
0.418952
0.424998
0.434479
0.447751
0.463529
0.481155
0.498661
0.523761
0.585803
0.647535
0.673873
0.680665
0.679021
0.672074
0.647253
0.64562
0.668764
0.708203
0.766537
0.787793
0.7711
0.732729
0.713631
0.699813
0.692706
0.689647
0.688516
0.688283
0.688996
0.691197
0.694581
0.699002
0.703521
0.707984
0.712435
0.716792
0.721368
0.726344
0.731575
0.737252
0.743812
0.751657
0.761079
0.772728
0.787807
0.807531
0.831593
0.855882
0.880561
0.903283
0.924864
0.94191
0.953641
0.95978
0.963403
0.965058
0.9656
0.965205
0.962227
0.959312
0.955737
0.952188
0.948857
0.946203
0.944088
0.943042
0.94269
0.943844
0.945661
0.948587
0.951833
0.955292
0.958545
0.961379
0.963668
0.965248
0.966004
0.965811
0.963312
0.955986
0.941099
0.914102
0.87346
0.826076
0.780219
0.747931
0.729195
0.720355
0.717645
0.717338
0.717858
0.719827
0.723088
0.726787
0.730988
0.735496
0.740162
0.744975
0.750155
0.756021
0.762974
0.771151
0.780538
0.790994
0.802398
0.815249
0.830971
0.850312
0.872807
0.896516
0.91726
0.931743
0.941313
0.946662
0.948114
0.94626
0.943207
0.94335
0.948194
0.962759
0.975905
0.983028
0.984572
0.983553
0.975931
0.962938
0.956747
0.954846
0.954431
0.954082
0.953188
0.950172
0.938784
0.920228
0.908593
0.903544
0.902643
0.90353
0.909453
0.927045
0.943542
0.956065
0.964044
0.974638
0.976138
0.7717
0.695295
0.634796
0.610559
0.580604
0.546856
0.533889
0.526674
0.517223
0.505357
0.491067
0.476517
0.466402
0.456178
0.447686
0.443017
0.441545
0.44175
0.443887
0.447796
0.45247
0.456735
0.461429
0.465412
0.46932
0.471859
0.47311
0.473901
0.474981
0.477048
0.477366
0.478666
0.478176
0.475021
0.47014
0.464053
0.460162
0.459202
0.460447
0.462438
0.462661
0.464203
0.470761
0.48937
0.536905
0.602243
0.654253
0.673605
0.680815
0.677966
0.674962
0.679527
0.700135
0.750299
0.77778
0.748362
0.718248
0.705836
0.695537
0.690775
0.689187
0.688926
0.690145
0.693146
0.6986
0.706606
0.716658
0.727153
0.73643
0.744834
0.753432
0.760915
0.770929
0.783529
0.798632
0.81586
0.836272
0.858077
0.881048
0.903585
0.923416
0.938017
0.950832
0.960929
0.967491
0.970619
0.971755
0.971797
0.969087
0.964522
0.959223
0.950616
0.938753
0.923894
0.908618
0.893301
0.87919
0.866794
0.85672
0.847796
0.842353
0.840264
0.842544
0.848085
0.858037
0.870956
0.886504
0.902816
0.917866
0.931686
0.944666
0.95614
0.965415
0.972461
0.977591
0.980613
0.981565
0.980338
0.972185
0.94822
0.896862
0.831737
0.773965
0.740409
0.726762
0.723767
0.724088
0.725357
0.726939
0.728258
0.729267
0.73004
0.731038
0.733014
0.736138
0.740682
0.746995
0.755108
0.764817
0.775976
0.788045
0.799857
0.811461
0.824198
0.840795
0.864483
0.894729
0.923596
0.944637
0.957086
0.963564
0.965715
0.965161
0.962818
0.962717
0.966678
0.978177
0.984866
0.986291
0.985424
0.979399
0.971437
0.968267
0.967539
0.967316
0.96685
0.96553
0.961395
0.94706
0.926483
0.914028
0.909056
0.908401
0.909681
0.917277
0.936913
0.954488
0.965065
0.974567
0.980707
0.765466
0.675348
0.625553
0.601325
0.575596
0.559858
0.553104
0.549348
0.546046
0.544443
0.545336
0.551783
0.5658
0.582193
0.604317
0.625697
0.643077
0.664095
0.678214
0.692391
0.704912
0.712661
0.715791
0.714597
0.707663
0.69514
0.680811
0.668663
0.660323
0.653268
0.645222
0.636599
0.628922
0.619031
0.609382
0.60062
0.597745
0.599007
0.599357
0.598717
0.584429
0.557464
0.5335
0.521117
0.527222
0.559151
0.602919
0.646687
0.672632
0.68216
0.68476
0.689106
0.700966
0.737007
0.771835
0.743541
0.7176
0.7062
0.696884
0.693232
0.692731
0.695323
0.701496
0.713182
0.73254
0.761079
0.789568
0.814396
0.833475
0.84847
0.859312
0.867137
0.877855
0.889238
0.901726
0.914769
0.928099
0.941402
0.951693
0.960688
0.96644
0.969709
0.971185
0.971586
0.970433
0.968282
0.963289
0.954166
0.939636
0.919158
0.89264
0.860164
0.827954
0.796781
0.76734
0.74305
0.722728
0.708645
0.703841
0.702831
0.703691
0.706567
0.710755
0.715169
0.720682
0.727761
0.737914
0.752115
0.772131
0.797421
0.826587
0.858792
0.891463
0.919501
0.943452
0.962739
0.976288
0.984531
0.988827
0.990107
0.989058
0.980197
0.94559
0.862479
0.787532
0.747759
0.733163
0.730172
0.730981
0.736671
0.744032
0.749014
0.751412
0.752122
0.75303
0.755455
0.758218
0.760191
0.762457
0.76786
0.780707
0.794347
0.807101
0.819175
0.831036
0.844608
0.862325
0.886556
0.915676
0.942657
0.961086
0.97086
0.974926
0.975691
0.975303
0.975024
0.976275
0.982728
0.987857
0.98887
0.98824
0.984537
0.98113
0.980223
0.980089
0.979862
0.979162
0.977097
0.970767
0.953469
0.936494
0.926001
0.921623
0.921035
0.922616
0.931376
0.951254
0.965385
0.975325
0.981852
0.754866
0.667864
0.639621
0.626913
0.621802
0.63081
0.647931
0.665693
0.693938
0.723881
0.757601
0.789943
0.818175
0.842899
0.863083
0.880639
0.89603
0.907155
0.917474
0.922999
0.926071
0.927176
0.92583
0.921124
0.912705
0.899562
0.879983
0.852635
0.821456
0.793702
0.764438
0.734558
0.714528
0.70189
0.693755
0.689826
0.689097
0.696301
0.71187
0.746798
0.786603
0.783022
0.754937
0.706378
0.644486
0.618981
0.621784
0.642596
0.670198
0.684853
0.690499
0.694371
0.702811
0.729575
0.766397
0.744809
0.719003
0.708567
0.702636
0.701611
0.704043
0.71461
0.73542
0.769553
0.806362
0.838211
0.868855
0.893022
0.911944
0.925198
0.930682
0.935045
0.941146
0.94666
0.953652
0.959951
0.965211
0.969589
0.971762
0.97261
0.972426
0.971137
0.969502
0.965343
0.957273
0.943523
0.921321
0.889141
0.847752
0.803675
0.757354
0.71477
0.676951
0.648907
0.637455
0.632928
0.631863
0.633957
0.640382
0.648054
0.657115
0.666054
0.674881
0.68257
0.688418
0.69253
0.695275
0.697726
0.700727
0.705398
0.713154
0.726113
0.747707
0.782933
0.82901
0.8788
0.91977
0.951045
0.972549
0.985552
0.992064
0.994465
0.994498
0.990576
0.967358
0.878768
0.795052
0.754263
0.740114
0.738285
0.73952
0.745457
0.757681
0.772323
0.787298
0.799207
0.807237
0.812078
0.814032
0.813561
0.811999
0.812086
0.81493
0.82708
0.83986
0.849164
0.860413
0.877913
0.901314
0.926813
0.950011
0.966874
0.976317
0.98029
0.981358
0.981483
0.981637
0.983003
0.988021
0.991383
0.992166
0.992036
0.991025
0.989819
0.989413
0.989113
0.988478
0.987011
0.983255
0.971726
0.954191
0.940935
0.933561
0.93112
0.931148
0.933891
0.946793
0.964312
0.97628
0.983436
0.741752
0.689779
0.687781
0.719202
0.743048
0.776581
0.800305
0.828363
0.857346
0.882706
0.903364
0.924578
0.936396
0.951001
0.958183
0.966595
0.970692
0.974629
0.976448
0.977329
0.977602
0.977617
0.976975
0.975844
0.973778
0.97028
0.96431
0.954117
0.936835
0.908377
0.876268
0.840386
0.800724
0.766132
0.743216
0.727134
0.719479
0.717812
0.730637
0.76544
0.824851
0.854507
0.857816
0.848923
0.820972
0.744849
0.680763
0.669028
0.6761
0.688899
0.693615
0.697168
0.704691
0.726834
0.761965
0.748408
0.722789
0.715047
0.712499
0.714394
0.729423
0.763312
0.80405
0.838618
0.868086
0.892086
0.915389
0.936244
0.952567
0.959759
0.9625
0.96472
0.967011
0.96936
0.971838
0.973365
0.974082
0.974239
0.973385
0.972099
0.969209
0.963825
0.954137
0.937205
0.909616
0.868685
0.822738
0.772042
0.720372
0.667576
0.622461
0.598229
0.586203
0.579954
0.5772
0.576497
0.581492
0.587745
0.5974
0.609878
0.625176
0.641371
0.656865
0.670317
0.68071
0.688005
0.692341
0.693958
0.694006
0.69412
0.694768
0.696387
0.699649
0.706175
0.719216
0.746643
0.798495
0.86228
0.914333
0.95087
0.974461
0.988036
0.994603
0.996921
0.996998
0.992916
0.970358
0.88656
0.801856
0.761289
0.748191
0.747579
0.749645
0.756235
0.772596
0.790833
0.811019
0.83168
0.848319
0.859123
0.864808
0.866564
0.866298
0.866145
0.867633
0.876366
0.884558
0.890611
0.903298
0.924262
0.946312
0.964231
0.975923
0.982016
0.984407
0.985029
0.985244
0.985791
0.988264
0.992338
0.994533
0.995314
0.99545
0.995431
0.995285
0.995034
0.994523
0.993363
0.990356
0.980825
0.962815
0.948166
0.93921
0.935549
0.935082
0.936365
0.944289
0.962184
0.975777
0.984246
0.750924
0.734852
0.767047
0.813079
0.836691
0.871686
0.891349
0.917502
0.933625
0.951163
0.960094
0.969844
0.974369
0.978839
0.980778
0.982339
0.983031
0.983381
0.983493
0.983504
0.983331
0.983269
0.98336
0.983544
0.983803
0.984094
0.984388
0.984623
0.984261
0.98242
0.978005
0.968982
0.952285
0.924355
0.883094
0.831944
0.782959
0.758278
0.74771
0.768198
0.814594
0.857427
0.872901
0.872085
0.867898
0.864059
0.842579
0.779993
0.715878
0.701658
0.699776
0.701369
0.707714
0.726868
0.75903
0.751241
0.727955
0.720819
0.720791
0.734775
0.786813
0.8355
0.872802
0.89819
0.917036
0.931094
0.944028
0.959171
0.970696
0.974135
0.974815
0.974407
0.974684
0.975094
0.975297
0.974981
0.974284
0.973029
0.970048
0.964475
0.954134
0.936714
0.905821
0.865878
0.81843
0.769382
0.712563
0.655209
0.60384
0.566485
0.546873
0.531741
0.518644
0.505649
0.49041
0.479212
0.474708
0.478658
0.490875
0.510214
0.537389
0.570571
0.606802
0.638695
0.664566
0.682402
0.693014
0.699304
0.70212
0.700743
0.697593
0.696467
0.696548
0.697858
0.700812
0.706028
0.717502
0.746207
0.809566
0.878948
0.929006
0.962047
0.981701
0.992214
0.997016
0.998095
0.996877
0.98866
0.961722
0.88147
0.80838
0.772759
0.76126
0.761324
0.764735
0.774157
0.795755
0.820127
0.843629
0.864289
0.881151
0.893011
0.900313
0.904423
0.906186
0.907165
0.909828
0.918562
0.927519
0.937841
0.951453
0.965541
0.976604
0.983345
0.986514
0.987578
0.987868
0.988242
0.989473
0.992828
0.995448
0.996851
0.997479
0.997714
0.997771
0.997748
0.997549
0.996853
0.994819
0.988376
0.971224
0.954975
0.944513
0.939666
0.938606
0.939214
0.943936
0.959321
0.974198
0.9838
0.769414
0.772315
0.829597
0.872499
0.896025
0.925013
0.939379
0.957034
0.96546
0.973696
0.977265
0.979673
0.980589
0.981015
0.981097
0.980961
0.979767
0.978476
0.977019
0.975977
0.975365
0.975192
0.975989
0.977128
0.978775
0.980993
0.982612
0.985084
0.986897
0.988989
0.990748
0.991539
0.991813
0.988993
0.981914
0.966059
0.933252
0.868636
0.809055
0.782611
0.791993
0.821078
0.856588
0.861317
0.845358
0.845693
0.849629
0.842618
0.812112
0.750977
0.719881
0.716025
0.721195
0.735249
0.759553
0.751598
0.730145
0.726037
0.73403
0.783442
0.858847
0.903375
0.930649
0.945853
0.954133
0.959332
0.964052
0.972019
0.978962
0.980313
0.978987
0.976507
0.975688
0.975324
0.974842
0.973507
0.97088
0.96584
0.956619
0.940241
0.912207
0.87073
0.827811
0.776835
0.723441
0.668993
0.612399
0.564487
0.524095
0.495925
0.467037
0.433371
0.397361
0.376292
0.37173
0.373838
0.383038
0.394137
0.406978
0.421788
0.440543
0.465526
0.499604
0.54781
0.603736
0.652278
0.681906
0.698081
0.706618
0.712261
0.714192
0.711954
0.708472
0.704913
0.703625
0.704497
0.70836
0.716564
0.734264
0.782709
0.85328
0.913478
0.953288
0.976948
0.989878
0.996286
0.998289
0.998076
0.995055
0.983201
0.950757
0.884896
0.828862
0.800306
0.794458
0.796957
0.806937
0.832846
0.871629
0.905338
0.925393
0.933013
0.933936
0.932121
0.930349
0.930345
0.931385
0.936975
0.94964
0.958735
0.966255
0.973892
0.980896
0.985968
0.988764
0.989867
0.990177
0.990432
0.991135
0.993447
0.995973
0.99753
0.998344
0.998699
0.998808
0.998812
0.998738
0.998414
0.997426
0.994453
0.984415
0.967623
0.955119
0.948149
0.94569
0.945587
0.947574
0.957274
0.971966
0.982515
0.785314
0.805795
0.873338
0.909594
0.93142
0.952427
0.962357
0.972134
0.976362
0.978813
0.979533
0.97972
0.979338
0.977488
0.974065
0.968618
0.962869
0.958429
0.955316
0.953749
0.953141
0.953262
0.95492
0.957291
0.959759
0.963844
0.96714
0.971352
0.974928
0.979784
0.985212
0.991207
0.994052
0.995826
0.996458
0.995198
0.990201
0.975793
0.936072
0.858728
0.806674
0.80316
0.821245
0.843642
0.832493
0.815451
0.821563
0.833084
0.828398
0.80625
0.774469
0.76106
0.755702
0.756078
0.76137
0.749198
0.732552
0.735885
0.771563
0.860606
0.92004
0.950203
0.965848
0.973678
0.977905
0.978686
0.978615
0.980338
0.983937
0.983823
0.980589
0.976636
0.975096
0.973452
0.970739
0.966544
0.958354
0.943175
0.914079
0.874506
0.826838
0.78875
0.746884
0.698449
0.648494
0.591025
0.540953
0.489767
0.440837
0.391618
0.351345
0.334298
0.329892
0.3357
0.34868
0.365391
0.381521
0.396079
0.4077
0.418039
0.42959
0.445335
0.466384
0.492349
0.527144
0.57922
0.64111
0.680675
0.701568
0.712692
0.719274
0.722704
0.724596
0.725042
0.72179
0.719143
0.718098
0.718998
0.726184
0.748682
0.794808
0.850751
0.907961
0.950131
0.975291
0.988982
0.99578
0.998318
0.998524
0.997431
0.992365
0.978472
0.94564
0.910024
0.893929
0.892254
0.895331
0.909913
0.939505
0.960147
0.972028
0.977248
0.978195
0.976536
0.966909
0.958707
0.956819
0.957498
0.963557
0.972608
0.977895
0.981978
0.985859
0.989059
0.991062
0.991948
0.992212
0.992386
0.99282
0.994337
0.99647
0.997923
0.998755
0.999145
0.999272
0.999283
0.99924
0.99906
0.99858
0.997392
0.994
0.983519
0.970636
0.961932
0.957634
0.956504
0.956794
0.960247
0.971352
0.981632
0.798198
0.831423
0.90159
0.933159
0.9513
0.965818
0.97241
0.976808
0.978368
0.97883
0.978731
0.976663
0.971317
0.963045
0.953988
0.94708
0.94326
0.940038
0.938471
0.937713
0.937494
0.938216
0.939462
0.942068
0.945895
0.950617
0.956093
0.961117
0.96521
0.968497
0.97156
0.97635
0.985642
0.993559
0.996888
0.998059
0.998458
0.997251
0.991466
0.970911
0.897195
0.823584
0.812109
0.827732
0.828331
0.803281
0.800222
0.812592
0.820817
0.810521
0.790257
0.775601
0.764873
0.762168
0.759548
0.743458
0.739815
0.764091
0.831628
0.910812
0.951998
0.970391
0.97887
0.982938
0.987086
0.989185
0.988511
0.987248
0.98721
0.986087
0.981613
0.976535
0.972886
0.96729
0.955812
0.933125
0.912656
0.883306
0.850674
0.813173
0.778902
0.741073
0.694427
0.644025
0.589074
0.525598
0.463784
0.401804
0.348801
0.322006
0.311348
0.311005
0.330632
0.364962
0.41202
0.458181
0.49681
0.519312
0.52226
0.510317
0.491864
0.477701
0.47695
0.490383
0.514213
0.545569
0.589719
0.646924
0.685864
0.707756
0.719017
0.724331
0.727829
0.732313
0.738644
0.74324
0.74559
0.745751
0.745684
0.752244
0.784011
0.827354
0.870059
0.915279
0.953001
0.976635
0.989635
0.995951
0.998419
0.998904
0.998504
0.996399
0.989439
0.973808
0.965006
0.963917
0.965092
0.969802
0.979174
0.986049
0.990109
0.991991
0.99241
0.992
0.988548
0.982051
0.979107
0.978494
0.978857
0.98139
0.984291
0.986522
0.988941
0.991233
0.992835
0.993622
0.993886
0.994039
0.994372
0.995462
0.997097
0.998294
0.999027
0.999396
0.999526
0.999539
0.999491
0.999305
0.999046
0.99856
0.997421
0.99404
0.985124
0.976749
0.971548
0.96931
0.968934
0.969466
0.973431
0.982116
0.809701
0.853026
0.91972
0.947974
0.962617
0.971752
0.97575
0.977699
0.978239
0.978032
0.975554
0.967898
0.957808
0.948328
0.940714
0.936619
0.933825
0.93248
0.931891
0.931714
0.9321
0.932359
0.932948
0.933675
0.934959
0.937627
0.943083
0.951771
0.960631
0.964886
0.967654
0.969748
0.973202
0.981581
0.992087
0.996912
0.998753
0.999297
0.999185
0.996715
0.983682
0.914991
0.827837
0.819367
0.824402
0.800971
0.789867
0.793266
0.801719
0.800848
0.786611
0.773836
0.764646
0.762038
0.752826
0.744224
0.757858
0.791716
0.854424
0.921575
0.955871
0.971705
0.979071
0.982759
0.987893
0.991653
0.993288
0.992677
0.991308
0.988513
0.983284
0.976052
0.961413
0.95221
0.93381
0.905376
0.863642
0.825311
0.79764
0.774525
0.759774
0.717672
0.657605
0.59367
0.525879
0.458061
0.390976
0.337392
0.30913
0.301348
0.31093
0.34696
0.427131
0.539416
0.653756
0.735204
0.781996
0.802528
0.802843
0.777378
0.717116
0.634428
0.569295
0.537784
0.531574
0.545246
0.57692
0.621339
0.668563
0.699513
0.716607
0.724152
0.728244
0.733841
0.744592
0.760098
0.776229
0.787774
0.792563
0.794575
0.801712
0.829494
0.863054
0.896028
0.930355
0.960453
0.980248
0.991318
0.996649
0.998684
0.999236
0.999108
0.998143
0.994422
0.990628
0.98984
0.990098
0.991215
0.993731
0.995628
0.996725
0.997207
0.997286
0.997048
0.995278
0.99159
0.989816
0.989385
0.989424
0.989966
0.990766
0.991168
0.991727
0.993006
0.99425
0.994962
0.995239
0.995394
0.995703
0.996584
0.997762
0.998665
0.99925
0.999564
0.999686
0.999703
0.999671
0.999499
0.999305
0.999098
0.998679
0.997594
0.994002
0.988029
0.983764
0.981551
0.980854
0.980865
0.981592
0.985006
0.819146
0.865906
0.931125
0.955894
0.967941
0.974143
0.976661
0.977593
0.977735
0.975747
0.96764
0.956795
0.946773
0.938412
0.933765
0.931427
0.930212
0.929755
0.929657
0.930623
0.931174
0.931622
0.931829
0.932025
0.932325
0.933104
0.934519
0.938297
0.948812
0.96032
0.965822
0.968047
0.970008
0.974167
0.983468
0.992315
0.99705
0.999081
0.999685
0.999766
0.998719
0.989034
0.917709
0.832082
0.816841
0.810024
0.786123
0.781812
0.782299
0.780082
0.774586
0.767334
0.762566
0.758841
0.751583
0.753187
0.768775
0.797502
0.85344
0.912968
0.941431
0.954533
0.962086
0.968925
0.980716
0.989403
0.99328
0.994772
0.994564
0.99289
0.98737
0.978057
0.960648
0.917156
0.861127
0.848559
0.833822
0.805989
0.780807
0.754048
0.71591
0.668247
0.598779
0.52388
0.451299
0.391598
0.343115
0.31369
0.304415
0.309771
0.354663
0.490483
0.672672
0.796389
0.849185
0.871709
0.884809
0.895682
0.903784
0.904592
0.894551
0.859962
0.759338
0.657772
0.60323
0.582069
0.584181
0.614221
0.660581
0.694857
0.713311
0.722559
0.727686
0.734564
0.750697
0.778504
0.810007
0.83872
0.860174
0.871937
0.872104
0.871968
0.879595
0.897396
0.920745
0.946902
0.969725
0.984936
0.99343
0.997511
0.999028
0.9995
0.999467
0.999016
0.997891
0.997474
0.997497
0.997697
0.998244
0.998703
0.998952
0.999045
0.999041
0.998864
0.997829
0.99581
0.994816
0.994548
0.994518
0.994517
0.994465
0.994333
0.994338
0.994508
0.995273
0.996003
0.996303
0.996474
0.996806
0.997559
0.998364
0.999008
0.999443
0.999689
0.999793
0.999813
0.999798
0.99969
0.999542
0.999442
0.99928
0.998896
0.997671
0.994531
0.991918
0.990511
0.99004
0.990023
0.990372
0.991771
0.828839
0.876415
0.936492
0.960378
0.970713
0.97512
0.976658
0.977184
0.976052
0.970949
0.96244
0.953919
0.945461
0.937972
0.932857
0.930236
0.928849
0.928379
0.929198
0.931519
0.932594
0.932565
0.93242
0.932022
0.932153
0.9326
0.933333
0.935079
0.940429
0.953224
0.962897
0.967172
0.96908
0.972015
0.979806
0.989397
0.995359
0.998221
0.999427
0.999845
0.999936
0.999646
0.992689
0.921229
0.821869
0.812486
0.79937
0.780495
0.776462
0.771594
0.76776
0.763596
0.760432
0.757565
0.75273
0.757805
0.769917
0.794752
0.831313
0.858962
0.866485
0.868024
0.870205
0.876791
0.90467
0.954718
0.981281
0.991782
0.994626
0.994691
0.993066
0.985619
0.967204
0.923183
0.838991
0.769889
0.756189
0.762887
0.75877
0.744441
0.707025
0.610575
0.525041
0.456297
0.398942
0.35717
0.32916
0.313486
0.313074
0.344258
0.499323
0.723246
0.834995
0.871583
0.880862
0.885919
0.89128
0.900442
0.912928
0.922522
0.924897
0.920392
0.894315
0.791417
0.690638
0.641267
0.623903
0.624896
0.656861
0.693475
0.711496
0.719724
0.725916
0.736763
0.764804
0.815337
0.865884
0.904958
0.934427
0.950123
0.953675
0.951481
0.940128
0.929384
0.928396
0.939803
0.96143
0.978499
0.989485
0.99547
0.998307
0.999348
0.999695
0.999703
0.999589
0.999424
0.999404
0.999431
0.999522
0.999622
0.999671
0.999684
0.999669
0.999556
0.999008
0.997904
0.997327
0.997162
0.997119
0.997034
0.996689
0.996086
0.995882
0.995911
0.996271
0.99688
0.997148
0.997338
0.997733
0.998295
0.99885
0.999297
0.999605
0.999785
0.999867
0.999887
0.999882
0.99983
0.999741
0.999691
0.999628
0.999486
0.999043
0.997694
0.996394
0.995717
0.995511
0.995513
0.995702
0.996372
0.835539
0.875056
0.934516
0.95971
0.970519
0.975
0.976567
0.976753
0.975793
0.971293
0.962947
0.955072
0.947166
0.939897
0.934355
0.931191
0.929381
0.928525
0.928579
0.928998
0.930016
0.931348
0.932123
0.932559
0.932889
0.933148
0.933644
0.934958
0.938983
0.950949
0.961768
0.966784
0.968859
0.97148
0.978452
0.988368
0.994824
0.997985
0.999292
0.999774
0.999937
0.999982
0.999928
0.996908
0.920312
0.805963
0.827776
0.804656
0.778946
0.772034
0.767676
0.763733
0.760538
0.757868
0.757187
0.760206
0.768049
0.781579
0.794242
0.802932
0.803383
0.801615
0.799318
0.798733
0.802667
0.822094
0.87539
0.948387
0.981595
0.992206
0.993554
0.992074
0.983106
0.950071
0.859684
0.773746
0.715097
0.687548
0.69889
0.71136
0.692057
0.615964
0.514512
0.443023
0.392457
0.355834
0.331102
0.323808
0.336437
0.437239
0.685491
0.825504
0.870659
0.88054
0.880036
0.875459
0.872531
0.877539
0.901537
0.922521
0.932491
0.933502
0.925748
0.874435
0.745506
0.674827
0.65375
0.651921
0.663655
0.694787
0.711372
0.718443
0.725258
0.739588
0.781957
0.859706
0.9142
0.946683
0.964414
0.974029
0.978926
0.979996
0.97946
0.975907
0.962749
0.955965
0.957914
0.971653
0.98558
0.99329
0.997185
0.998968
0.999608
0.999828
0.999869
0.999864
0.999854
0.999857
0.99987
0.999888
0.999896
0.999897
0.999885
0.999826
0.999554
0.998955
0.99864
0.998553
0.99851
0.998401
0.997946
0.997205
0.996908
0.996898
0.997105
0.997568
0.997812
0.99805
0.9984
0.998816
0.999206
0.999515
0.999728
0.999855
0.999916
0.999934
0.999934
0.999914
0.999871
0.999848
0.999824
0.999771
0.999606
0.999069
0.99852
0.99825
0.99818
0.998189
0.998299
0.998613
0.842359
0.87
0.928333
0.95677
0.96928
0.974453
0.976344
0.976584
0.975936
0.972713
0.964913
0.957956
0.951509
0.94493
0.938546
0.934404
0.931816
0.930154
0.929588
0.929649
0.929918
0.930736
0.931914
0.93287
0.933631
0.93441
0.935558
0.937754
0.942575
0.954085
0.963691
0.967836
0.969624
0.972104
0.978857
0.98886
0.995259
0.998243
0.999394
0.999797
0.999934
0.999982
0.999995
0.999982
0.998861
0.960568
0.801868
0.786766
0.793223
0.786218
0.772116
0.766197
0.762024
0.759462
0.759639
0.761372
0.765864
0.772117
0.777875
0.781544
0.781878
0.78118
0.780008
0.779415
0.779703
0.782135
0.790255
0.814463
0.889005
0.958903
0.985333
0.990843
0.989546
0.978826
0.92906
0.810002
0.726228
0.676859
0.646063
0.646022
0.644609
0.612941
0.524743
0.450578
0.398794
0.361141
0.342825
0.344897
0.383046
0.564363
0.758648
0.847022
0.872064
0.873396
0.866328
0.858929
0.859076
0.867804
0.895789
0.921627
0.936317
0.939959
0.937
0.903265
0.786311
0.699301
0.668571
0.666936
0.680399
0.702921
0.713172
0.718097
0.725421
0.744007
0.805765
0.881275