/*--------------------------------*- C++ -*----------------------------------*\
  =========                 |
  \\      /  F ield         | OpenFOAM: The Open Source CFD Toolbox
   \\    /   O peration     | Website:  https://openfoam.org
    \\  /    A nd           | Version:  6
     \\/     M anipulation  |
\*---------------------------------------------------------------------------*/
FoamFile
{
    version     2.0;
    format      ascii;
    class       volVectorField;
    location    "0.05";
    object      U;
}
// * * * * * * * * * * * * * * * * * * * * * * * * * * * * * * * * * * * * * //

dimensions      [0 1 -1 0 0 0 0];

internalField   nonuniform List<vector> 
12225
(
(9.75254 0.0752609 0)
(9.50068 -0.0178574 0)
(9.28688 -0.00124403 0)
(8.94919 0.0460629 0)
(8.59767 0.0643806 0)
(8.32878 0.0566899 0)
(8.13118 0.0448318 0)
(7.94699 0.038777 0)
(7.71761 0.0360092 0)
(7.46382 0.03022 0)
(7.19057 0.0231213 0)
(6.96747 0.015251 0)
(6.73008 0.0166631 0)
(6.57558 0.0164035 0)
(6.32857 0.0359713 0)
(6.22314 0.0367017 0)
(5.826 0.0812882 0)
(5.84709 0.0371862 0)
(10.0947 0.0312723 0)
(10.0627 0.037948 0)
(10.1401 0.0782926 0)
(10.1612 0.0960546 0)
(10.1267 0.0805756 0)
(10.104 0.0558566 0)
(10.127 0.0454542 0)
(10.1849 0.0589845 0)
(10.232 0.0854501 0)
(10.2393 0.11145 0)
(10.1935 0.124286 0)
(10.1179 0.125658 0)
(10.0214 0.118125 0)
(9.94078 0.112399 0)
(9.85603 0.106288 0)
(9.79966 0.118025 0)
(9.71003 0.133114 0)
(9.64327 0.142799 0)
(9.88766 0.149683 0)
(9.91106 0.0957766 0)
(10.0076 0.0776198 0)
(10.1381 0.0808502 0)
(10.2286 0.0623208 0)
(10.2339 0.0314637 0)
(10.1792 0.0135967 0)
(10.1226 0.0199881 0)
(10.0965 0.0420607 0)
(10.1031 0.066538 0)
(10.1309 0.0811252 0)
(10.169 0.0843322 0)
(10.211 0.0792488 0)
(10.2545 0.0748578 0)
(10.2954 0.0770605 0)
(10.3271 0.0991423 0)
(10.3487 0.130231 0)
(10.3509 0.175657 0)
(9.9764 0.0871385 0)
(10.0876 -0.055745 0)
(10.2677 -0.0316882 0)
(10.3692 0.0391242 0)
(10.3891 0.0946472 0)
(10.3355 0.117338 0)
(10.2535 0.112502 0)
(10.1938 0.095607 0)
(10.171 0.0806415 0)
(10.1718 0.0740596 0)
(10.1756 0.0735 0)
(10.1672 0.0739028 0)
(10.1456 0.073518 0)
(10.1226 0.0751068 0)
(10.1092 0.082787 0)
(10.1137 0.103063 0)
(10.1373 0.135213 0)
(10.1765 0.179347 0)
(9.94443 -0.0354204 0)
(9.99006 -0.0253182 0)
(10.0144 0.0163341 0)
(10.0244 0.0392472 0)
(10.0427 0.0396051 0)
(10.053 0.0321332 0)
(10.0479 0.0280836 0)
(10.0389 0.0338838 0)
(10.0395 0.0527484 0)
(10.0604 0.0805781 0)
(10.103 0.105689 0)
(10.1581 0.117253 0)
(10.2112 0.113756 0)
(10.2516 0.101651 0)
(10.2701 0.0913095 0)
(10.271 0.094747 0)
(10.2598 0.115288 0)
(10.2488 0.148647 0)
(10.2079 0.0225128 0)
(10.1308 -0.0505138 0)
(10.1234 -0.0232009 0)
(10.1578 0.0279463 0)
(10.1889 0.078033 0)
(10.2033 0.113736 0)
(10.1965 0.12465 0)
(10.1736 0.109763 0)
(10.1522 0.0798702 0)
(10.1519 0.0499693 0)
(10.1777 0.0296147 0)
(10.2157 0.021646 0)
(10.2448 0.0259006 0)
(10.2519 0.0418966 0)
(10.2335 0.0672492 0)
(10.2002 0.101148 0)
(10.1609 0.138124 0)
(10.1316 0.174959 0)
(10.1211 0.0106256 0)
(10.1624 -0.0355602 0)
(10.1578 0.0222914 0)
(10.1613 0.0642857 0)
(10.1728 0.063847 0)
(10.1774 0.0506784 0)
(10.1617 0.0410256 0)
(10.1251 0.0388847 0)
(10.0792 0.0443906 0)
(10.0429 0.055503 0)
(10.0285 0.0682664 0)
(10.0356 0.0798856 0)
(10.0559 0.0906122 0)
(10.0816 0.102977 0)
(10.107 0.117484 0)
(10.127 0.135204 0)
(10.1442 0.154741 0)
(10.1549 0.176966 0)
(9.89432 -0.065123 0)
(9.89027 -0.0709163 0)
(9.98211 -0.0335436 0)
(10.0436 -0.00484053 0)
(10.0708 0.0343109 0)
(10.0748 0.0910554 0)
(10.0673 0.138877 0)
(10.0619 0.151686 0)
(10.0673 0.128346 0)
(10.0834 0.0875159 0)
(10.1023 0.0493346 0)
(10.1165 0.0260387 0)
(10.1264 0.0209495 0)
(10.1385 0.0321554 0)
(10.1604 0.0557623 0)
(10.1918 0.087351 0)
(10.2317 0.124146 0)
(10.2713 0.163607 0)
(10.4745 -0.0131206 0)
(10.2074 -0.0879996 0)
(10.0635 -0.0233297 0)
(10.0332 0.037605 0)
(10.0726 0.0640894 0)
(10.1309 0.0657486 0)
(10.1789 0.0541496 0)
(10.2084 0.039297 0)
(10.2196 0.0302706 0)
(10.2189 0.0311284 0)
(10.2151 0.0390636 0)
(10.2129 0.048379 0)
(10.2139 0.0552996 0)
(10.2169 0.0595662 0)
(10.2197 0.0640584 0)
(10.2251 0.0732739 0)
(10.2293 0.0896136 0)
(10.244 0.115879 0)
(9.69632 -0.151545 0)
(9.87828 0.00431524 0)
(9.91249 0.0213339 0)
(9.9436 -0.00727035 0)
(10.0239 0.00126381 0)
(10.1165 0.050835 0)
(10.1806 0.101918 0)
(10.2093 0.125108 0)
(10.221 0.118113 0)
(10.2377 0.0933705 0)
(10.267 0.0654347 0)
(10.3017 0.0460456 0)
(10.3266 0.0410598 0)
(10.3304 0.0520042 0)
(10.3083 0.0733685 0)
(10.2685 0.101805 0)
(10.2225 0.130276 0)
(10.1875 0.158003 0)
(9.90253 -0.155764 0)
(9.94044 -0.0232836 0)
(10.0125 0.0326542 0)
(9.97363 0.00959825 0)
(9.92352 -0.0227782 0)
(9.93565 -0.0200296 0)
(10.0032 0.00599035 0)
(10.0866 0.0240873 0)
(10.1488 0.0209923 0)
(10.172 0.00556871 0)
(10.1604 -0.00542175 0)
(10.1346 0.000197079 0)
(10.1164 0.0241375 0)
(10.1193 0.0601076 0)
(10.1455 0.0972672 0)
(10.1855 0.126888 0)
(10.2351 0.144136 0)
(10.2773 0.150279 0)
(10.1211 -0.0606739 0)
(10.1357 -0.0767595 0)
(10.1941 -0.0650933 0)
(10.205 -0.0279916 0)
(10.1431 0.0117147 0)
(10.0501 0.0247247 0)
(9.97121 0.0243401 0)
(9.93111 0.0331576 0)
(9.92684 0.0548851 0)
(9.94314 0.0764031 0)
(9.96732 0.0832289 0)
(9.99734 0.0721338 0)
(10.0351 0.0508625 0)
(10.0848 0.0318005 0)
(10.1437 0.0253265 0)
(10.209 0.0341286 0)
(10.2706 0.0569326 0)
(10.3275 0.088605 0)
(10.2768 -0.0629638 0)
(10.2114 0.00770022 0)
(10.0948 0.04568 0)
(10.0001 0.0438747 0)
(9.97074 0.0552408 0)
(9.99497 0.0725178 0)
(10.0217 0.0770947 0)
(10.0384 0.0614495 0)
(10.0689 0.0298136 0)
(10.1297 -0.00565197 0)
(10.2105 -0.0316135 0)
(10.2862 -0.0387212 0)
(10.3341 -0.0266637 0)
(10.3454 -0.00234111 0)
(10.3249 0.0246819 0)
(10.2905 0.0483994 0)
(10.2527 0.0662873 0)
(10.232 0.0796788 0)
(9.97033 -0.143206 0)
(9.93373 0.0184381 0)
(9.91563 0.0689014 0)
(9.88914 0.0386492 0)
(9.90756 0.00270653 0)
(9.97696 -0.0183445 0)
(10.064 -0.02181 0)
(10.1481 -0.0157703 0)
(10.2223 -0.010823 0)
(10.2794 -0.0106023 0)
(10.3128 -0.0107745 0)
(10.3207 -0.0046546 0)
(10.3092 0.0115372 0)
(10.2866 0.0366806 0)
(10.2606 0.0647177 0)
(10.2375 0.0908413 0)
(10.2213 0.109403 0)
(10.2168 0.121039 0)
(10.0315 -0.120271 0)
(10.1298 -0.00628957 0)
(10.1461 0.0180393 0)
(10.1137 0.000423368 0)
(10.0642 -0.000231584 0)
(10.0407 0.00065973 0)
(10.0535 -0.0164463 0)
(10.09 -0.0475706 0)
(10.133 -0.0767789 0)
(10.1685 -0.0883181 0)
(10.1898 -0.0745019 0)
(10.197 -0.0386691 0)
(10.1946 0.00613907 0)
(10.1893 0.0469809 0)
(10.1854 0.0727926 0)
(10.186 0.0820448 0)
(10.1922 0.0755839 0)
(10.2045 0.059819 0)
(9.93652 -0.216789 0)
(10.0933 -0.00908458 0)
(10.0086 0.161187 0)
(9.96853 0.130535 0)
(10.008 0.0276217 0)
(10.0626 -0.0591355 0)
(10.0958 -0.0989427 0)
(10.0933 -0.0949544 0)
(10.0607 -0.0708513 0)
(10.0203 -0.0468452 0)
(9.99396 -0.0278993 0)
(9.9919 -0.00873642 0)
(10.0131 0.0147603 0)
(10.051 0.0424882 0)
(10.097 0.0697206 0)
(10.143 0.0907129 0)
(10.1849 0.101075 0)
(10.2198 0.0985535 0)
(9.81772 -0.0737478 0)
(9.82229 -0.0994074 0)
(9.92132 0.00317206 0)
(10.0597 0.0089254 0)
(10.1422 -0.0231648 0)
(10.1263 -0.0245792 0)
(10.0823 0.00211771 0)
(10.0626 0.024996 0)
(10.0679 0.0233029 0)
(10.0832 -0.000948872 0)
(10.0958 -0.0330002 0)
(10.1001 -0.0591625 0)
(10.0983 -0.0737219 0)
(10.097 -0.0781944 0)
(10.1017 -0.0772566 0)
(10.116 -0.0747058 0)
(10.1393 -0.0743127 0)
(10.1725 -0.0752533 0)
(10.0705 0.0744672 0)
(9.93471 0.00289394 0)
(9.91114 -0.106252 0)
(9.94814 -0.100389 0)
(9.96909 -0.0434333 0)
(9.96712 -0.0243882 0)
(9.97866 -0.05968 0)
(10.0128 -0.11117 0)
(10.05 -0.136967 0)
(10.0753 -0.121232 0)
(10.0866 -0.0736166 0)
(10.0884 -0.0145048 0)
(10.0875 0.037027 0)
(10.0891 0.0699018 0)
(10.0945 0.0793151 0)
(10.1031 0.0675273 0)
(10.1138 0.0380959 0)
(10.1247 -0.00212352 0)
(10.0768 -0.0430481 0)
(10.1459 0.00298498 0)
(10.096 -0.0253941 0)
(10.021 -0.0461502 0)
(9.97826 -0.0543091 0)
(9.97396 -0.0669436 0)
(9.99598 -0.0730156 0)
(10.0206 -0.0610143 0)
(10.0358 -0.0389932 0)
(10.0481 -0.0257613 0)
(10.0672 -0.0339898 0)
(10.0958 -0.0621139 0)
(10.1308 -0.0993683 0)
(10.1676 -0.13392 0)
(10.2018 -0.15732 0)
(10.2303 -0.168329 0)
(10.2516 -0.168206 0)
(10.2649 -0.163729 0)
(9.98542 0.234454 0)
(10.0807 0.105155 0)
(10.1656 0.0520357 0)
(10.2041 0.0598012 0)
(10.1826 0.02761 0)
(10.1109 -0.0406302 0)
(10.0354 -0.110397 0)
(9.98458 -0.161767 0)
(9.96001 -0.18809 0)
(9.95115 -0.190975 0)
(9.94723 -0.176035 0)
(9.94244 -0.149607 0)
(9.93669 -0.118799 0)
(9.9333 -0.0907776 0)
(9.93704 -0.0704158 0)
(9.95007 -0.0599194 0)
(9.97205 -0.0588085 0)
(10.0003 -0.0654266 0)
(10.1816 0.00200745 0)
(10.1787 -0.0824594 0)
(10.0955 -0.0422014 0)
(10.0936 0.0301668 0)
(10.1585 0.0731713 0)
(10.2293 0.0754005 0)
(10.2572 0.0473312 0)
(10.2337 0.0105343 0)
(10.176 -0.0174008 0)
(10.1097 -0.032191 0)
(10.0574 -0.040973 0)
(10.0295 -0.0547147 0)
(10.0239 -0.0802392 0)
(10.0323 -0.117736 0)
(10.0479 -0.159971 0)
(10.0654 -0.197594 0)
(10.0827 -0.223971 0)
(10.0975 -0.233563 0)
(10.1266 0.0029286 0)
(10.106 3.76958e-06 0)
(10.0858 -0.00618454 0)
(10.1312 -0.0792478 0)
(10.1891 -0.125801 0)
(10.1993 -0.111542 0)
(10.1729 -0.0599837 0)
(10.1421 -0.0154391 0)
(10.1198 -0.00580803 0)
(10.1047 -0.028849 0)
(10.0928 -0.0661543 0)
(10.081 -0.100892 0)
(10.0665 -0.125609 0)
(10.0494 -0.140413 0)
(10.0312 -0.149603 0)
(10.0173 -0.156607 0)
(10.01 -0.163812 0)
(10.0147 -0.171187 0)
(10.1356 -0.0197302 0)
(10.1684 0.00267467 0)
(10.2185 0.0446907 0)
(10.2211 0.0241683 0)
(10.1744 0.00630277 0)
(10.1129 0.0146182 0)
(10.0981 0.0239677 0)
(10.1406 0.0179242 0)
(10.2077 0.00227185 0)
(10.2602 -0.0113114 0)
(10.2745 -0.0195842 0)
(10.2487 -0.0278699 0)
(10.1966 -0.0427651 0)
(10.1372 -0.0674887 0)
(10.0867 -0.101646 0)
(10.0526 -0.141152 0)
(10.0364 -0.181767 0)
(10.0328 -0.217463 0)
(10.3161 0.0944688 0)
(10.2502 0.00693721 0)
(10.2276 -0.0784085 0)
(10.2467 -0.0497051 0)
(10.2836 0.0185808 0)
(10.2813 0.041337 0)
(10.2395 0.00758705 0)
(10.1886 -0.0443287 0)
(10.1574 -0.0766092 0)
(10.1582 -0.0741312 0)
(10.1841 -0.0454636 0)
(10.2188 -0.0132106 0)
(10.2462 0.000609903 0)
(10.2578 -0.0149232 0)
(10.2524 -0.0564777 0)
(10.2337 -0.11117 0)
(10.2061 -0.165427 0)
(10.1728 -0.205946 0)
(10.0899 0.100194 0)
(10.0922 0.0761592 0)
(10.0526 0.0208416 0)
(10.0163 -0.0566759 0)
(10.007 -0.0910589 0)
(10.0295 -0.0574193 0)
(10.0711 -0.00818739 0)
(10.1003 0.0054547 0)
(10.1043 -0.0199832 0)
(10.0965 -0.0556984 0)
(10.0945 -0.0758924 0)
(10.1053 -0.0753215 0)
(10.1255 -0.064601 0)
(10.1472 -0.0580691 0)
(10.163 -0.0630847 0)
(10.1682 -0.0790344 0)
(10.1616 -0.100406 0)
(10.1429 -0.119474 0)
(9.64454 0.0527385 0)
(9.87634 0.00424707 0)
(10.051 -0.00822948 0)
(10.1087 0.0389029 0)
(10.1093 0.0765456 0)
(10.1088 0.0763721 0)
(10.135 0.0447109 0)
(10.1714 0.00240084 0)
(10.1908 -0.0325341 0)
(10.1866 -0.0520019 0)
(10.1718 -0.0566714 0)
(10.1614 -0.0535929 0)
(10.1609 -0.0521685 0)
(10.1657 -0.0601658 0)
(10.1671 -0.0795056 0)
(10.1592 -0.106002 0)
(10.1413 -0.133516 0)
(10.1153 -0.153792 0)
(10.1404 -0.045637 0)
(10.223 -0.088937 0)
(10.1481 -0.0858967 0)
(10.1276 -0.0974177 0)
(10.1512 -0.109596 0)
(10.1755 -0.103964 0)
(10.2074 -0.085464 0)
(10.2524 -0.0679548 0)
(10.2988 -0.0591996 0)
(10.3338 -0.0580001 0)
(10.3504 -0.0592721 0)
(10.3478 -0.0595357 0)
(10.3303 -0.0589721 0)
(10.3052 -0.0599747 0)
(10.2807 -0.0636635 0)
(10.2605 -0.0696882 0)
(10.2468 -0.0762078 0)
(10.2359 -0.0804927 0)
(10.1231 -0.0468903 0)
(10.1808 -0.0496377 0)
(10.1799 0.00431722 0)
(10.1695 0.0279319 0)
(10.1847 0.0276579 0)
(10.1976 0.0159771 0)
(10.2029 -0.0056089 0)
(10.2043 -0.032411 0)
(10.2023 -0.0546313 0)
(10.1991 -0.0640255 0)
(10.1993 -0.0588223 0)
(10.2058 -0.0446363 0)
(10.2194 -0.0314525 0)
(10.2386 -0.0298721 0)
(10.2605 -0.0434969 0)
(10.2802 -0.0688979 0)
(10.2941 -0.0980677 0)
(10.2957 -0.117897 0)
(10.0324 -0.0895532 0)
(9.9864 -0.0961943 0)
(9.97622 -0.0798579 0)
(9.98324 -0.0779764 0)
(10.0105 -0.0760881 0)
(10.0497 -0.0677792 0)
(10.102 -0.0654073 0)
(10.1509 -0.0706904 0)
(10.176 -0.075233 0)
(10.1763 -0.0741705 0)
(10.1637 -0.0698529 0)
(10.149 -0.0671666 0)
(10.1363 -0.0693053 0)
(10.1246 -0.0764617 0)
(10.1118 -0.0854164 0)
(10.0988 -0.0933526 0)
(10.0836 -0.0967073 0)
(10.0714 -0.0934426 0)
(9.88767 0.141127 0)
(9.72609 0.0698391 0)
(9.63054 0.0605699 0)
(9.54047 0.0266212 0)
(9.41916 -0.0150222 0)
(9.25928 -0.0453471 0)
(9.07703 -0.0577504 0)
(8.88798 -0.0559703 0)
(8.70246 -0.0495806 0)
(8.53038 -0.0438973 0)
(8.37925 -0.0374275 0)
(8.25119 -0.0286503 0)
(8.14036 -0.0209605 0)
(8.0344 -0.0212741 0)
(7.91633 -0.0330793 0)
(7.77711 -0.0529838 0)
(7.61173 -0.0737738 0)
(7.43602 -0.0847839 0)
(-0.0410362 -0.126533 2.24009e-20)
(-0.0478608 -0.207638 -2.22647e-20)
(-0.00765412 -0.271822 0)
(0.0316282 -0.382317 0)
(0.0976403 -0.49882 0)
(0.25572 -0.498964 2.15702e-20)
(0.391146 -0.481918 0)
(0.509908 -0.474262 0)
(0.622529 -0.475836 0)
(0.741324 -0.475877 0)
(0.873666 -0.474593 -2.06313e-20)
(1.03048 -0.475454 0)
(1.21472 -0.472505 0)
(1.41414 -0.460196 0)
(1.61098 -0.437897 0)
(1.79323 -0.409411 -1.97738e-20)
(1.95795 -0.37983 0)
(2.10832 -0.352489 0)
(2.24904 -0.328227 0)
(2.38357 -0.307801 0)
(2.5145 -0.291572 0)
(2.64386 -0.276951 0)
(2.77187 -0.263362 0)
(2.90006 -0.252096 -1.86839e-20)
(3.03006 -0.240018 1.85617e-20)
(3.15909 -0.229841 -1.8441e-20)
(3.29023 -0.221143 -1.83215e-20)
(3.42047 -0.206657 0)
(3.54428 -0.198573 0)
(3.66899 -0.184121 1.79752e-20)
(3.77769 -0.163399 1.7867e-20)
(3.8764 -0.157618 0)
(3.96043 -0.119309 0)
(4.00477 -0.103647 1.75832e-20)
(4.03688 -0.0718394 0)
(3.97735 0.0115597 0)
(3.87464 0.0239058 -1.74034e-20)
(3.67885 0.212816 0)
(3.29549 0.284627 -1.73656e-20)
(2.93673 0.43317 -3.47241e-20)
(2.04577 1.00482 0)
(0.827413 0.570765 0)
(0.17071 -0.186533 0)
(-0.164352 -0.165017 0)
(-0.414382 -0.0289427 0)
(-0.601617 0.111506 -3.31143e-20)
(-0.817446 0.178744 -3.26682e-20)
(-0.992594 0.0692651 -3.22863e-20)
(-0.933666 -0.176863 0)
(-0.628301 -0.41294 3.17422e-20)
(-0.196463 -0.437578 0)
(0.0910055 -0.301802 -3.12914e-20)
(-0.104673 -0.336599 -3.102e-20)
(0.457972 -0.377819 0)
(0.615475 -0.475492 0)
(0.824732 -0.625224 0)
(1.17697 -0.570725 -2.94571e-20)
(0.855503 0.0598511 0)
(-0.054137 0.500667 0)
(-0.777672 0.493678 0)
(-1.38243 0.427512 0)
(-1.92375 0.360758 0)
(-2.38519 0.298806 0)
(-2.78309 0.246997 0)
(-3.11699 0.205206 0)
(-3.40558 0.173609 2.50267e-20)
(-3.65362 0.151042 0)
(-3.87703 0.136138 0)
(-4.08139 0.127749 -2.33966e-20)
(-4.27803 0.124344 -2.28667e-20)
(-4.47149 0.124848 0)
(-4.66878 0.128036 2.18022e-20)
(-4.87269 0.133181 -2.12604e-20)
(-5.08679 0.139476 0)
(-5.3123 0.146315 2.01437e-20)
(-5.55055 0.153131 0)
(-5.80153 0.159564 0)
(-6.06498 0.165321 -1.83635e-20)
(-6.33982 0.170138 0)
(-6.62464 0.173773 1.71069e-20)
(-6.91747 0.17601 0)
(-7.21589 0.176627 -1.58131e-20)
(-7.51698 0.175401 -1.51625e-20)
(-7.81728 0.172114 -1.45174e-20)
(-8.11282 0.166542 -2.77703e-20)
(-8.39908 0.158495 2.65496e-20)
(-8.67107 0.147812 0)
(-8.92331 0.134393 0)
(-9.15006 0.118211 0)
(-9.34535 0.0993308 2.25309e-20)
(-9.50319 0.0779751 2.18585e-20)
(-9.6179 0.0544025 -2.13635e-20)
(-9.68421 0.0290762 0)
(-9.69679 0.00287218 2.09713e-20)
(-9.65645 -0.0238968 2.10939e-20)
(-9.5604 -0.051115 2.14331e-20)
(-9.40761 -0.0782295 0)
(-9.19768 -0.104747 0)
(-8.93151 -0.130099 0)
(-8.61109 -0.153769 2.47154e-20)
(-8.23955 -0.175303 0)
(-7.82097 -0.194327 0)
(-7.36024 -0.210562 -2.84925e-20)
(-6.86291 -0.223831 0)
(-6.33491 -0.234073 0)
(-5.7823 -0.24135 -3.23977e-20)
(-5.21105 -0.245804 0)
(-4.62693 -0.247642 0)
(-4.03529 -0.247105 3.56353e-20)
(-3.44117 -0.244397 3.64766e-20)
(-2.84933 -0.239662 0)
(-2.26447 -0.232959 -3.77442e-20)
(-1.69131 -0.224277 0)
(-1.13469 -0.213559 3.84345e-20)
(-0.599655 -0.200699 0)
(-0.091283 -0.185707 3.85442e-20)
(0.384689 -0.168904 3.83701e-20)
(0.822566 -0.150711 0)
(1.21752 -0.131447 0)
(1.56561 -0.111396 0)
(1.86393 -0.0909743 0)
(2.11069 -0.0706534 0)
(2.30533 -0.0509344 0)
(2.44851 -0.0322879 0)
(2.54226 -0.0150455 3.37532e-20)
(2.58968 0.000822848 -3.29889e-20)
(2.59283 0.0147848 0)
(2.5591 0.0259618 0)
(2.496 0.0342065 0)
(2.4109 0.0396819 0)
(2.31154 0.042456 -5.84197e-20)
(2.2058 0.042577 0)
(2.10156 0.0401751 5.56986e-20)
(2.0064 0.0355217 -5.44575e-20)
(1.92715 0.0290287 0)
(1.86949 0.0211842 0)
(1.83761 0.0124578 0)
(1.83414 0.0032245 5.0503e-20)
(1.86062 -0.00609409 4.97661e-20)
(1.91697 -0.0149552 0)
(2.00172 -0.02279 4.8527e-20)
(2.11229 -0.0290938 4.79938e-20)
(2.24505 -0.0336042 -4.74973e-20)
(2.39569 -0.0365163 0)
(2.55983 -0.0385221 0)
(2.73388 -0.0404189 -4.609e-20)
(2.91544 -0.04214 0)
(3.10215 -0.0415945 0)
(3.28837 -0.0346257 0)
(3.46126 -0.0176504 0)
(3.60099 0.00788234 4.35414e-20)
(3.68895 0.0340859 4.29808e-20)
(3.71864 0.0518101 0)
(3.70002 0.0581551 4.18091e-20)
(3.6473 0.0565449 0)
(3.57114 0.0502506 0)
(3.48339 0.0402625 3.99485e-20)
(3.3977 0.0282781 0)
(3.32486 0.0180693 3.86912e-20)
(3.26694 0.0135335 0)
(3.21581 0.0160234 0)
(3.15819 0.0235472 3.68633e-20)
(3.08386 0.0322677 0)
(2.99029 0.0388045 3.5646e-20)
(2.88248 0.041446 0)
(2.76824 0.0399518 0)
(2.65653 0.0348141 0)
(2.55305 0.0270191 -3.32034e-20)
(2.46432 0.0180779 0)
(2.38931 0.00984468 3.20197e-20)
(2.33263 0.00395137 0)
(2.282 0.00111082 0)
(2.24729 0.00136622 0)
(2.19795 0.00364383 0)
(2.17016 0.00794606 0)
(2.09014 0.0124822 0)
(2.06872 0.0206008 0)
(1.90513 0.0272734 -5.52298e-20)
(1.92608 0.0459792 0)
(1.53711 0.0565876 0)
(0.00484448 0.0838672 -6.73458e-20)
(0.174435 0.0650179 6.68284e-20)
(0.375352 -0.0311434 0)
(0.57324 -0.117197 -4.37933e-20)
(0.783085 -0.14851 0)
(0.978589 -0.142265 -2.1514e-20)
(1.16191 -0.130031 4.26e-20)
(1.33435 -0.141781 4.22043e-20)
(1.49582 -0.194106 0)
(1.63954 -0.272228 4.14257e-20)
(1.76174 -0.361451 2.05739e-20)
(1.86386 -0.445088 0)
(1.95196 -0.5021 0)
(2.02972 -0.521618 0)
(2.09341 -0.509041 0)
(2.13749 -0.477157 1.97561e-20)
(2.16263 -0.436976 0)
(2.17606 -0.395548 -3.88541e-20)
(2.18693 -0.357257 0)
(2.20194 -0.325401 0)
(2.22475 -0.301743 3.80849e-20)
(2.25804 -0.286118 0)
(2.30358 -0.278192 -3.76014e-20)
(2.36216 -0.27622 1.87067e-20)
(2.43432 -0.277495 -1.85866e-20)
(2.51848 -0.28175 1.84674e-20)
(2.6141 -0.284735 1.8349e-20)
(2.71897 -0.283788 0)
(2.82817 -0.282677 0)
(2.94539 -0.27063 -1.80038e-20)
(3.05895 -0.251722 1.78565e-20)
(3.16623 -0.232764 0)
(3.2819 -0.184818 0)
(3.36291 -0.139164 -1.76091e-20)
(3.45284 -0.0754891 0)
(3.54452 0.051293 0)
(3.59818 0.147616 1.74129e-20)
(3.68021 0.361985 0)
(3.65928 0.611707 -1.71139e-20)
(3.70158 0.827071 3.46358e-20)
(3.5269 1.3463 0)
(3.19844 1.61898 0)
(3.051 1.77061 6.74791e-20)
(2.18437 1.53443 6.71196e-20)
(0.757299 0.510057 6.67246e-20)
(-0.0232615 0.11106 -3.28992e-20)
(-0.306602 0.0663061 3.26998e-20)
(-0.551881 -0.1943 9.67356e-20)
(-0.638894 -0.593244 -6.37728e-20)
(-0.552487 -1.05766 -3.17394e-20)
(-0.464113 -1.19137 0)
(-0.149654 -0.422927 3.12904e-20)
(0.044659 0.0272275 -3.11517e-20)
(0.811756 -0.52208 0)
(0.987367 -0.530842 0)
(-0.0217787 0.349753 0)
(-0.771965 0.879786 2.95411e-20)
(-1.47474 1.15 0)
(-2.09661 1.21428 -5.72793e-20)
(-2.57565 1.122 0)
(-2.98665 0.989239 -5.52652e-20)
(-3.34994 0.849261 0)
(-3.65387 0.719138 5.30525e-20)
(-3.92582 0.607557 0)
(-4.15652 0.517344 -5.08461e-20)
(-4.36732 0.447281 2.48007e-20)
(-4.55443 0.396849 0)
(-4.73164 0.362535 4.76818e-20)
(-4.89899 0.342715 2.33553e-20)
(-5.06469 0.333916 2.28281e-20)
(-5.22998 0.334205 0)
(-5.39915 0.340921 2.17673e-20)
(-5.57336 0.35237 2.12283e-20)
(-5.7548 0.366603 0)
(-5.94414 0.382231 -2.01155e-20)
(-6.14208 0.398009 3.90857e-20)
(-6.34848 0.413047 0)
(-6.56305 0.42654 1.83416e-20)
(-6.78503 0.437787 0)
(-7.01334 0.446132 -5.12343e-20)
(-7.24649 0.450947 0)
(-7.48262 0.451593 4.73315e-20)
(-7.71944 0.447414 1.51519e-20)
(-7.95427 0.437742 -1.4397e-20)
(-8.18397 0.42192 -2.74867e-20)
(-8.40497 0.399339 2.62212e-20)
(-8.61327 0.369484 0)
(-8.80452 0.331992 0)
(-8.97405 0.286703 0)
(-9.11707 0.233711 -6.71016e-20)
(-9.22876 0.173454 -2.18653e-20)
(-9.30434 0.106662 2.13727e-20)
(-9.33939 0.0344595 0)
(-9.33049 -0.041532 2.03986e-20)
(-9.26975 -0.120032 -2.11045e-20)
(-9.15453 -0.199843 -2.14426e-20)
(-8.98284 -0.279407 0)
(-8.75437 -0.357127 0)
(-8.46996 -0.43138 0)
(-8.13166 -0.500662 -2.47208e-20)
(-7.7427 -0.563646 0)
(-7.30732 -0.619226 5.39711e-20)
(-6.83061 -0.666565 8.51448e-20)
(-6.31832 -0.705129 -5.93535e-20)
(-5.77663 -0.734735 0)
(-5.2118 -0.755571 -3.21719e-20)
(-4.63001 -0.768121 0)
(-4.03713 -0.773066 -6.91662e-20)
(-3.43854 -0.771204 3.54922e-20)
(-2.83923 -0.763221 3.63555e-20)
(-2.24382 -0.749613 0)
(-1.65682 -0.730573 1.13159e-19)
(-1.08279 -0.706001 -7.62698e-20)
(-0.526281 -0.675589 -3.84395e-20)
(0.00784089 -0.639052 0)
(0.514304 -0.596369 -3.8508e-20)
(0.987881 -0.547979 -1.14969e-19)
(1.42344 -0.494606 0)
(1.81633 -0.437199 -7.52348e-20)
(2.16268 -0.376934 -7.42355e-20)
(2.45966 -0.315169 -7.30807e-20)
(2.70544 -0.253306 0)
(2.89932 -0.192737 0)
(3.04189 -0.134841 0)
(3.1348 -0.0809228 3.37399e-20)
(3.18089 -0.0320345 3.29666e-20)
(3.18681 0.0106253 0)
(3.15617 0.0456953 6.28316e-20)
(3.09384 0.0725164 6.12962e-20)
(3.00665 0.0908373 0)
(2.90245 0.100514 5.83761e-20)
(2.7897 0.101595 1.1386e-19)
(2.677 0.0944217 -5.56589e-20)
(2.57267 0.079719 -5.4296e-20)
(2.4843 0.0586427 0)
(2.41829 0.0327505 0)
(2.37942 0.00385539 0)
(2.37047 -0.026231 -5.04761e-20)
(2.39178 -0.0559223 4.96471e-20)
(2.44229 -0.0839318 9.80922e-20)
(2.52011 -0.109342 -4.84983e-20)
(2.62279 -0.131492 4.79157e-20)
(2.74761 -0.149842 4.74683e-20)
(2.89141 -0.163982 0)
(3.05039 -0.173813 0)
(3.21999 -0.179705 -4.60458e-20)
(3.39533 -0.182305 0)
(3.57225 -0.181675 0)
(3.74905 -0.176129 8.91626e-20)
(3.92806 -0.162252 0)
(4.11493 -0.137311 4.35052e-20)
(4.31469 -0.102435 -4.29511e-20)
(4.52547 -0.0628743 0)
(4.7306 -0.0242507 4.17578e-20)
(4.90489 0.0101604 0)
(5.02768 0.0371673 0)
(5.09139 0.0525401 -3.98895e-20)
(5.10539 0.0545487 7.85122e-20)
(5.09071 0.047301 -3.86286e-20)
(5.06927 0.0395446 0)
(5.05216 0.0389858 0)
(5.03498 0.0469743 3.67943e-20)
(5.00524 0.058743 0)
(4.95427 0.068206 3.55732e-20)
(4.88526 0.0722933 0)
(4.80875 0.0712275 0)
(4.73758 0.066835 0)
(4.67807 0.0604907 3.3142e-20)
(4.6349 0.0534688 0)
(4.60237 0.0461755 -3.19599e-20)
(4.58181 0.0401096 0)
(4.55797 0.03501 0)
(4.54118 0.0330102 6.05172e-20)
(4.50352 0.0319037 -5.94088e-20)
(4.48286 0.0358164 0)
(4.41502 0.0390589 0)
(4.40005 0.0514896 0)
(4.2722 0.0598832 1.65322e-19)
(4.28771 0.0873761 0)
(4.02353 0.105526 -1.0606e-19)
(0.0823016 -0.209819 -3.41382e-23)
(0.368925 -0.540656 -8.9047e-20)
(0.627916 -0.723287 0)
(0.854677 -0.807753 8.73566e-20)
(1.03869 -0.831849 0)
(1.17758 -0.815646 0)
(1.28579 -0.799635 -7.93525e-23)
(1.37463 -0.818771 -4.21842e-20)
(1.43048 -0.858873 -4.17298e-20)
(1.45025 -0.863393 -4.14397e-20)
(1.42453 -0.835593 0)
(1.31937 -0.764999 0)
(1.16377 -0.637307 4.03709e-20)
(0.99923 -0.464171 8.01237e-20)
(0.844012 -0.288295 -7.95322e-20)
(0.705913 -0.155761 0)
(0.591626 -0.0856249 -7.84157e-20)
(0.507075 -0.0691147 3.90375e-20)
(0.454493 -0.0877265 0)
(0.431921 -0.126685 -7.68452e-20)
(0.4367 -0.176563 -3.82678e-20)
(0.46679 -0.230971 7.58526e-20)
(0.51975 -0.286376 3.77753e-20)
(0.593454 -0.340598 0)
(0.687065 -0.389832 -7.44155e-20)
(0.798006 -0.431361 -7.39427e-20)
(0.923866 -0.46479 0)
(1.06225 -0.487605 -7.30036e-20)
(1.21073 -0.495098 0)
(1.36521 -0.487768 -7.20891e-20)
(1.52265 -0.468278 -3.58778e-20)
(1.68176 -0.425844 0)
(1.83882 -0.358518 0)
(1.99024 -0.289401 0)
(2.15054 -0.178417 0)
(2.29991 -0.0208319 0)
(2.43851 0.110217 0)
(2.63498 0.34247 -6.91782e-20)
(2.81467 0.640393 1.03371e-19)
(3.04596 0.905929 0)
(3.2872 1.36547 0)
(3.48399 1.79085 0)
(3.7676 2.15798 -2.87043e-22)
(3.66368 2.37711 -6.67923e-20)
(3.20739 2.23045 -1.32245e-19)
(2.64598 1.91631 1.30893e-19)
(1.84709 1.3707 6.47275e-20)
(1.0999 0.726129 -6.42682e-20)
(0.543207 0.13558 5.52607e-23)
(0.220882 -0.629247 -6.33506e-20)
(-0.218637 -1.15666 0)
(-0.687211 -0.650151 -6.28444e-20)
(0.34866 -0.911107 -3.75e-22)
(0.080485 -0.65177 0)
(-0.721771 0.695146 0)
(-1.36894 1.39667 6.00637e-20)
(-1.89423 1.67086 0)
(-2.33268 1.79581 0)
(-2.62907 1.74743 -5.65697e-20)
(-2.88523 1.60419 -1.11638e-19)
(-3.08221 1.41345 5.52186e-20)
(-3.27675 1.2187 0)
(-3.44077 1.04044 -5.30464e-20)
(-3.60556 0.886921 0)
(-3.75152 0.763326 -5.03237e-20)
(-3.89476 0.666869 -4.97985e-20)
(-4.02802 0.597478 9.71863e-20)
(-4.16028 0.550566 4.74957e-20)
(-4.29131 0.524026 0)
(-4.42579 0.513585 -9.12473e-20)
(-4.56505 0.516321 0)
(-4.71128 0.528583 -1.30735e-19)
(-4.86588 0.547472 -8.50387e-20)
(-5.02983 0.570259 -8.2855e-20)
(-5.20365 0.594989 8.06025e-20)
(-5.38735 0.62003 -1.174e-19)
(-5.58092 0.643983 0)
(-5.78401 0.665611 0)
(-5.99605 0.683827 7.0867e-20)
(-6.21613 0.697615 1.02443e-19)
(-6.44305 0.705972 0)
(-6.67523 0.707872 -3.15605e-20)
(-6.91071 0.702251 0)
(-7.14704 0.688049 8.64778e-20)
(-7.38123 0.664229 3.91168e-22)
(-7.60969 0.629836 -4.66247e-22)
(-7.82825 0.584052 -4.9909e-20)
(-8.03211 0.52627 0)
(-8.21592 0.456172 4.56106e-20)
(-8.37391 0.373799 7.57679e-22)
(-8.50005 0.279599 0)
(-8.58829 0.174499 0)
(-8.63283 0.0598842 0)
(-8.62863 -0.0625355 -4.14225e-20)
(-8.57136 -0.190548 0)
(-8.4577 -0.321567 0)
(-8.28538 -0.452902 0)
(-8.05351 -0.581697 0)
(-7.76264 -0.705141 0)
(-7.41474 -0.820592 -4.82574e-20)
(-7.0131 -0.925689 0)
(-6.5622 -1.01842 -5.39916e-20)
(-6.06755 -1.09719 -5.66691e-20)
(-5.53549 -1.16094 5.93728e-20)
(-4.97289 -1.20925 0)
(-4.38685 -1.24236 6.45912e-20)
(-3.78433 -1.26113 0)
(-3.17199 -1.26689 6.91895e-20)
(-2.55589 -1.2612 -7.11543e-20)
(-1.94165 -1.24544 -2.18133e-19)
(-1.33447 -1.22065 0)
(-0.739418 -1.1873 -2.26006e-19)
(-0.161647 -1.14534 -7.60283e-20)
(0.393339 -1.09428 0)
(0.919991 -1.03364 -1.53802e-19)
(1.41286 -0.963483 -1.53667e-19)
(1.86687 -0.884414 2.29526e-19)
(2.27774 -0.797476 0)
(2.64237 -0.704106 7.5123e-20)
(2.95881 -0.606097 7.41333e-20)
(3.22613 -0.505511 2.19017e-19)
(3.44402 -0.404516 0)
(3.61278 -0.305259 0)
(3.73328 -0.209819 0)
(3.80725 -0.120043 6.7413e-20)
(3.83697 -0.0379363 0)
(3.82516 0.0342362 0)
(3.77672 0.0948048 -6.27808e-20)
(3.69773 0.14251 -6.12463e-20)
(3.59505 0.176351 0)
(3.47631 0.195694 0)
(3.3497 0.200376 -1.1377e-19)
(3.22372 0.19083 0)
(3.10672 0.168213 1.08637e-19)
(3.00644 0.134435 1.06147e-19)
(2.92933 0.0920885 0)
(2.87996 0.0442397 0)
(2.86067 -0.00590082 -1.00625e-19)
(2.87179 -0.0554223 -1.41359e-22)
(2.91199 -0.102139 -1.15658e-22)
(2.9789 -0.144581 0)
(3.06959 -0.181692 -1.91577e-19)
(3.18036 -0.212565 0)
(3.30625 -0.236483 0)
(3.44084 -0.253289 0)
(3.57721 -0.263674 9.20598e-20)
(3.70993 -0.268763 0)
(3.83726 -0.268983 -1.8026e-19)
(3.96207 -0.263397 -8.91304e-20)
(4.09113 -0.250799 0)
(4.23259 -0.231837 -8.69959e-20)
(4.39214 -0.208967 0)
(4.56999 -0.18265 0)
(4.76042 -0.148831 -2.50499e-19)
(4.95225 -0.103146 1.64548e-19)
(5.12805 -0.0482895 0)
(5.26366 0.00369399 1.59534e-19)
(5.33766 0.0379423 -7.84964e-20)
(5.34669 0.0474218 0)
(5.31222 0.0390472 0)
(5.27223 0.0297261 0)
(5.25899 0.0343088 -2.20716e-19)
(5.28011 0.0556283 0)
(5.31688 0.0841664 -7.11313e-20)
(5.34065 0.106557 0)
(5.33178 0.11428 0)
(5.29069 0.107326 0)
(5.23104 0.0904464 0)
(5.17177 0.0700459 0)
(5.12381 0.0503095 0)
(5.09577 0.0359106 -1.25498e-19)
(5.08198 0.027447 0)
(5.08364 0.0275982 -6.04884e-20)
(5.08119 0.0312845 1.78122e-19)
(5.08408 0.041864 0)
(5.06079 0.0501615 0)
(5.05128 0.0681991 -1.1219e-19)
(4.99382 0.0811263 -1.10129e-19)
(4.98695 0.1151 1.07937e-19)
(4.88858 0.142789 1.05986e-19)
(0.181562 -0.954361 1.34851e-19)
(0.470812 -1.51716 1.33564e-19)
(0.653307 -1.57232 8.82009e-20)
(0.754197 -1.48406 4.36759e-20)
(0.78741 -1.33295 0)
(0.76666 -1.13355 -8.57829e-20)
(0.705658 -0.959561 4.24785e-20)
(0.557376 -0.806481 0)
(0.302419 -0.546737 4.18823e-20)
(0.0128908 -0.0963706 0)
(-0.226561 0.204892 -8.22557e-20)
(-0.435455 0.184142 0)
(-0.597902 0.0977924 -4.04556e-20)
(-0.717412 0.0471069 -8.02237e-20)
(-0.813843 0.014212 7.95692e-20)
(-0.895499 -0.0156829 0)
(-0.96688 -0.0507847 7.8357e-20)
(-1.02835 -0.094912 0)
(-1.07683 -0.148752 0)
(-1.10834 -0.211637 7.67152e-20)
(-1.11805 -0.281794 0)
(-1.1022 -0.357062 -3.97909e-22)
(-1.05889 -0.435318 0)
(-0.987143 -0.513821 0)
(-0.886374 -0.588568 3.53937e-22)
(-0.757572 -0.655503 7.39361e-20)
(-0.602975 -0.711469 7.32132e-20)
(-0.42735 -0.754801 7.31012e-20)
(-0.232474 -0.780555 0)
(-0.024983 -0.78349 1.4437e-19)
(0.190851 -0.762883 0)
(0.409029 -0.724816 7.12963e-20)
(0.628989 -0.667597 0)
(0.847063 -0.582437 0)
(1.06474 -0.464207 -7.02904e-20)
(1.28301 -0.339752 0)
(1.50441 -0.207137 6.97042e-20)
(1.7451 0.0220632 -5.66391e-23)
(1.99587 0.28294 -1.38061e-19)
(2.28464 0.515514 1.37292e-19)
(2.61556 0.897578 0)
(2.96163 1.32507 0)
(3.3934 1.73921 6.69621e-20)
(3.74989 2.18473 0)
(3.96166 2.52287 6.58267e-20)
(4.04095 2.62299 -6.50579e-20)
(3.74631 2.4798 -6.43885e-20)
(3.20716 2.17556 0)
(2.63946 1.61031 6.33394e-20)
(1.97365 0.921946 6.31067e-20)
(1.28256 -0.0877795 -1.26835e-19)
(0.112887 -0.858302 6.28517e-20)
(0.323939 -0.789247 6.24862e-20)
(-0.346319 0.261699 0)
(-1.17389 1.43137 0)
(-1.61836 2.00571 -5.99815e-20)
(-1.97757 2.1844 0)
(-2.26444 2.21381 0)
(-2.45164 2.07046 1.13741e-19)
(-2.6297 1.87464 1.1165e-19)
(-2.75548 1.64536 0)
(-2.88803 1.42615 0)
(-2.99781 1.22748 0)
(-3.11124 1.05822 0)
(-3.2141 0.920974 1.0127e-19)
(-3.31621 0.814515 -9.88703e-20)
(-3.41532 0.738389 -9.72794e-20)
(-3.51557 0.689289 -1.90419e-19)
(-3.61988 0.664415 0)
(-3.73019 0.659303 5.11631e-23)
(-3.84948 0.669662 0)
(-3.97851 0.690886 8.72539e-20)
(-4.11886 0.71922 -5.63072e-23)
(-4.27005 0.751776 8.29443e-20)
(-4.43236 0.786364 -8.06887e-20)
(-4.60568 0.821015 -5.00635e-23)
(-4.79027 0.854101 0)
(-4.98582 0.884254 -7.34762e-20)
(-5.19218 0.91023 -7.0939e-20)
(-5.40898 0.930823 -1.36565e-19)
(-5.63574 0.944801 0)
(-5.87172 0.950858 6.27527e-20)
(-6.11577 0.947639 0)
(-6.36619 0.933729 -1.14784e-19)
(-6.62058 0.907651 5.49494e-20)
(-6.87566 0.867893 -5.2385e-20)
(-7.12711 0.812967 4.99459e-20)
(-7.36955 0.741521 9.37128e-20)
(-7.59656 0.652482 -4.56399e-20)