/*--------------------------------*- C++ -*----------------------------------*\
  =========                 |
  \\      /  F ield         | OpenFOAM: The Open Source CFD Toolbox
   \\    /   O peration     | Website:  https://openfoam.org
    \\  /    A nd           | Version:  6
     \\/     M anipulation  |
\*---------------------------------------------------------------------------*/
FoamFile
{
    version     2.0;
    format      ascii;
    class       volVectorField;
    location    "0.05";
    object      U_0;
}
// * * * * * * * * * * * * * * * * * * * * * * * * * * * * * * * * * * * * * //

dimensions      [0 1 -1 0 0 0 0];

internalField   nonuniform List<vector> 
12225
(
(9.75368 0.0612705 0)
(9.52027 -0.021208 0)
(9.30072 0.000859503 0)
(8.95331 0.0483922 0)
(8.60022 0.0651245 0)
(8.33293 0.056541 0)
(8.13521 0.0446255 0)
(7.94794 0.0386352 0)
(7.71447 0.0356986 0)
(7.45796 0.0296887 0)
(7.18394 0.0226125 0)
(6.96127 0.0150506 0)
(6.72431 0.0168833 0)
(6.56992 0.0170198 0)
(6.32222 0.0369255 0)
(6.21429 0.0376662 0)
(5.81536 0.0820424 0)
(5.83568 0.0376735 0)
(10.102 0.0153387 0)
(10.0779 0.0391577 0)
(10.1541 0.0818697 0)
(10.1669 0.0974562 0)
(10.129 0.0801008 0)
(10.1069 0.0552385 0)
(10.1319 0.0459658 0)
(10.1898 0.0607574 0)
(10.234 0.0877239 0)
(10.2367 0.113346 0)
(10.1866 0.125305 0)
(10.1083 0.125848 0)
(10.0112 0.117871 0)
(9.93132 0.111935 0)
(9.84758 0.106203 0)
(9.79146 0.118414 0)
(9.70093 0.133598 0)
(9.63355 0.146201 0)
(9.8963 0.139601 0)
(9.93188 0.0939096 0)
(10.0259 0.0803816 0)
(10.152 0.0828121 0)
(10.2353 0.0622808 0)
(10.2327 0.0309168 0)
(10.1734 0.0140856 0)
(10.1162 0.0218174 0)
(10.0914 0.0445339 0)
(10.0992 0.0686916 0)
(10.1279 0.0823044 0)
(10.1664 0.0844906 0)
(10.2088 0.0788216 0)
(10.2525 0.0744728 0)
(10.2927 0.0775787 0)
(10.3228 0.100808 0)
(10.3416 0.132996 0)
(10.341 0.181049 0)
(9.99687 0.0573281 0)
(10.1175 -0.0566473 0)
(10.289 -0.0242526 0)
(10.3796 0.0467984 0)
(10.391 0.100201 0)
(10.3309 0.120254 0)
(10.2465 0.113314 0)
(10.1877 0.0955154 0)
(10.1664 0.0806661 0)
(10.1672 0.0745096 0)
(10.1697 0.0741121 0)
(10.1592 0.0743443 0)
(10.1364 0.0737924 0)
(10.1132 0.0754775 0)
(10.1008 0.0837592 0)
(10.1066 0.105002 0)
(10.1312 0.138338 0)
(10.1709 0.184197 0)
(9.97021 -0.0467979 0)
(10.013 -0.017773 0)
(10.026 0.0243078 0)
(10.0305 0.0444926 0)
(10.0462 0.0424682 0)
(10.0534 0.03391 0)
(10.0458 0.0297226 0)
(10.0355 0.0361842 0)
(10.0362 0.055983 0)
(10.0582 0.0841273 0)
(10.1018 0.108455 0)
(10.1572 0.118464 0)
(10.2094 0.11347 0)
(10.2478 0.10059 0)
(10.2636 0.0906401 0)
(10.2621 0.0954514 0)
(10.2494 0.117747 0)
(10.2383 0.152978 0)
(10.2262 0.0395714 0)
(10.1486 -0.04239 0)
(10.1351 -0.012728 0)
(10.1657 0.0373604 0)
(10.1934 0.0857887 0)
(10.2043 0.119055 0)
(10.1941 0.127077 0)
(10.169 0.10985 0)
(10.1473 0.0788532 0)
(10.1482 0.0490058 0)
(10.1751 0.0293564 0)
(10.2127 0.0223195 0)
(10.2397 0.0275546 0)
(10.2436 0.0444354 0)
(10.2222 0.0705227 0)
(10.187 0.104941 0)
(10.1472 0.142166 0)
(10.119 0.179394 0)
(10.144 0.0324234 0)
(10.1796 -0.0219172 0)
(10.1672 0.0352763 0)
(10.1666 0.0725746 0)
(10.1755 0.0686234 0)
(10.177 0.0537831 0)
(10.1577 0.0435613 0)
(10.1183 0.0414511 0)
(10.0711 0.0471606 0)
(10.0353 0.0583123 0)
(10.022 0.0708771 0)
(10.0302 0.0822228 0)
(10.051 0.0927922 0)
(10.0765 0.105119 0)
(10.1012 0.119658 0)
(10.1203 0.137462 0)
(10.1367 0.157096 0)
(10.1471 0.179504 0)
(9.90787 -0.0473613 0)
(9.91186 -0.0517822 0)
(9.99562 -0.0201897 0)
(10.0505 0.00537745 0)
(10.0733 0.0440231 0)
(10.074 0.0998121 0)
(10.0646 0.144937 0)
(10.0586 0.154175 0)
(10.0639 0.128006 0)
(10.0798 0.0860212 0)
(10.0979 0.0482255 0)
(10.1111 0.0261777 0)
(10.1203 0.0225206 0)
(10.1327 0.0349654 0)
(10.1552 0.0594754 0)
(10.1872 0.0916376 0)
(10.2273 0.128726 0)
(10.2664 0.168123 0)
(10.4906 0.0233757 0)
(10.2037 -0.0661994 0)
(10.0639 -0.00681184 0)
(10.0368 0.0494274 0)
(10.0774 0.0719877 0)
(10.1343 0.0706787 0)
(10.1799 0.0572372 0)
(10.2068 0.0416996 0)
(10.2156 0.0328231 0)
(10.2132 0.0340603 0)
(10.2086 0.0420887 0)
(10.206 0.0510642 0)
(10.2067 0.0574117 0)
(10.2093 0.0612272 0)
(10.2117 0.0657043 0)
(10.2166 0.0753684 0)
(10.2206 0.092486 0)
(10.2356 0.119586 0)
(9.71299 -0.0914851 0)
(9.88912 0.0341299 0)
(9.91715 0.0336051 0)
(9.94956 0.00190027 0)
(10.0308 0.011584 0)
(10.1212 0.0611025 0)
(10.1814 0.109861 0)
(10.2068 0.129805 0)
(10.2173 0.120071 0)
(10.234 0.0937949 0)
(10.2638 0.0656365 0)
(10.2977 0.0470203 0)
(10.3204 0.0432984 0)
(10.3211 0.0554456 0)
(10.2958 0.077597 0)
(10.2539 0.106335 0)
(10.2074 0.134591 0)
(10.1737 0.161999 0)
(9.8836 -0.102007 0)
(9.94312 0.00627864 0)
(10.0143 0.0481335 0)
(9.97071 0.0180232 0)
(9.92102 -0.0155652 0)
(9.93636 -0.0122008 0)
(10.0061 0.0131705 0)
(10.0885 0.0291458 0)
(10.1472 0.0238985 0)
(10.1662 0.00757087 0)
(10.1516 -0.00282778 0)
(10.1249 0.00422976 0)
(10.1076 0.0295102 0)
(10.1124 0.0660112 0)
(10.1403 0.10264 0)
(10.1813 0.13093 0)
(10.2307 0.146568 0)
(10.2721 0.151373 0)
(10.1068 -0.0375255 0)
(10.1281 -0.0571856 0)
(10.195 -0.0493983 0)
(10.2026 -0.0146816 0)
(10.1355 0.0222299 0)
(10.0404 0.0323455 0)
(9.96254 0.0306989 0)
(9.92462 0.0395688 0)
(9.92178 0.0611607 0)
(9.93852 0.0814338 0)
(9.96277 0.0862205 0)
(9.99309 0.0733113 0)
(10.0316 0.0512621 0)
(10.0822 0.0326818 0)
(10.1416 0.0275213 0)
(10.207 0.0378438 0)
(10.2677 0.0619447 0)
(10.3231 0.0941837 0)
(10.2646 -0.067179 0)
(10.1953 0.0243911 0)
(10.0842 0.0604415 0)
(9.9939 0.0553973 0)
(9.96825 0.0656694 0)
(9.99354 0.0811483 0)
(10.0191 0.0831064 0)
(10.0353 0.0648717 0)
(10.0672 0.0314965 0)
(10.1298 -0.00440757 0)
(10.211 -0.0295683 0)
(10.2848 -0.0351935 0)
(10.3289 -0.0218095 0)
(10.336 0.00310496 0)
(10.3123 0.0299491 0)
(10.2763 0.0530749 0)
(10.2386 0.0703202 0)
(10.2191 0.0833024 0)
(9.98204 -0.142591 0)
(9.9307 0.0381084 0)
(9.91184 0.0820242 0)
(9.88603 0.0474152 0)
(9.90741 0.0100688 0)
(9.97868 -0.0110746 0)
(10.0659 -0.014526 0)
(10.1492 -0.00919264 0)
(10.2218 -0.00544268 0)
(10.2765 -0.0061621 0)
(10.3071 -0.00653498 0)
(10.3123 7.34015e-05 0)
(10.2987 0.0170256 0)
(10.2748 0.0426502 0)
(10.2483 0.070613 0)
(10.2252 0.0961426 0)
(10.2097 0.113816 0)
(10.2062 0.124616 0)
(10.0345 -0.100262 0)
(10.1301 0.0124439 0)
(10.1421 0.0311131 0)
(10.1069 0.0117659 0)
(10.057 0.00973441 0)
(10.0352 0.00848191 0)
(10.0497 -0.0110249 0)
(10.0869 -0.0437496 0)
(10.1294 -0.073038 0)
(10.1635 -0.0832762 0)
(10.1832 -0.0676554 0)
(10.1888 -0.0305822 0)
(10.1854 0.0142765 0)
(10.1796 0.0539888 0)
(10.1756 0.0779389 0)
(10.1764 0.085284 0)
(10.1829 0.0772712 0)
(10.1958 0.060696 0)
(9.93358 -0.21968 0)
(10.0938 0.0177753 0)
(10 0.179921 0)
(9.96339 0.138019 0)
(10.0053 0.0310823 0)
(10.0594 -0.0548824 0)
(10.0901 -0.0922838 0)
(10.0843 -0.0867207 0)
(10.0495 -0.0626448 0)
(10.0091 -0.0394916 0)
(9.9841 -0.0211939 0)
(9.98409 -0.00210867 0)
(10.0071 0.0215895 0)
(10.0462 0.0493571 0)
(10.0926 0.0761304 0)
(10.1382 0.0961361 0)
(10.1794 0.105122 0)
(10.2134 0.100971 0)
(9.81932 -0.0504245 0)
(9.83792 -0.071352 0)
(9.92685 0.0249559 0)
(10.0614 0.0212642 0)
(10.1367 -0.0130137 0)
(10.1156 -0.0134518 0)
(10.0713 0.0129154 0)
(10.0534 0.0333354 0)
(10.0601 0.0285131 0)
(10.0756 0.00206461 0)
(10.0875 -0.030677 0)
(10.0908 -0.0564228 0)
(10.0886 -0.0702099 0)
(10.0875 -0.0741104 0)
(10.0928 -0.0729591 0)
(10.1082 -0.0705156 0)
(10.1326 -0.0703577 0)
(10.1667 -0.0715443 0)
(10.0426 0.114339 0)
(9.90126 0.018332 0)
(9.89673 -0.092868 0)
(9.93837 -0.083941 0)
(9.95887 -0.0286979 0)
(9.95714 -0.0152588 0)
(9.97038 -0.0550674 0)
(10.0056 -0.107317 0)
(10.0426 -0.130938 0)
(10.0669 -0.11239 0)
(10.0771 -0.0631081 0)
(10.0785 -0.00408127 0)
(10.0776 0.0459155 0)
(10.0795 0.0764365 0)
(10.0854 0.0832827 0)
(10.0942 0.0691907 0)
(10.1051 0.0379593 0)
(10.1161 -0.00331325 0)
(10.0791 -0.00781032 0)
(10.1412 0.0233174 0)
(10.0787 -0.0115923 0)
(10.0031 -0.0346154 0)
(9.96321 -0.0445701 0)
(9.96196 -0.0587256 0)
(9.98564 -0.0649415 0)
(10.0105 -0.0526155 0)
(10.0258 -0.031259 0)
(10.0387 -0.0200223 0)
(10.0589 -0.0307381 0)
(10.0885 -0.0607451 0)
(10.1241 -0.0987111 0)
(10.1611 -0.132822 0)
(10.1952 -0.1551 0)
(10.2232 -0.164868 0)
(10.2438 -0.163837 0)
(10.2564 -0.159202 0)
(9.94146 0.264698 0)
(10.0506 0.115794 0)
(10.1435 0.0652128 0)
(10.1848 0.0704337 0)
(10.1626 0.0328357 0)
(10.0906 -0.0384726 0)
(10.0166 -0.10865 0)
(9.96825 -0.159066 0)
(9.94602 -0.183985 0)
(9.93863 -0.185521 0)
(9.93533 -0.169539 0)
(9.93075 -0.142544 0)
(9.92534 -0.111781 0)
(9.92271 -0.0843683 0)
(9.92763 -0.0649647 0)
(9.94197 -0.0555387 0)
(9.96512 -0.0554159 0)
(9.99403 -0.0628952 0)
(10.1897 0.00172971 0)
(10.1471 -0.080325 0)
(10.0692 -0.0302687 0)
(10.0754 0.0416391 0)
(10.1459 0.0812402 0)
(10.2171 0.080041 0)
(10.2424 0.0498804 0)
(10.216 0.0126771 0)
(10.1573 -0.0146959 0)
(10.0918 -0.0290074 0)
(10.0418 -0.0380937 0)
(10.0164 -0.0529713 0)
(10.0129 -0.0799872 0)
(10.0228 -0.118638 0)
(10.0393 -0.161106 0)
(10.0572 -0.197989 0)
(10.0747 -0.222817 0)
(10.0897 -0.230635 0)
(10.1178 0.00439069 0)
(10.076 0.00450145 0)
(10.0628 -0.00583064 0)
(10.1143 -0.0797111 0)
(10.1739 -0.122542 0)
(10.1828 -0.104459 0)
(10.1557 -0.0518237 0)
(10.1257 -0.00930512 0)
(10.1047 -0.00293215 0)
(10.0906 -0.0283961 0)
(10.0794 -0.0664919 0)
(10.0679 -0.100788 0)
(10.0535 -0.124646 0)
(10.0365 -0.138781 0)
(10.0187 -0.147688 0)
(10.0058 -0.154676 0)
(9.99982 -0.161962 0)
(10.0063 -0.169397 0)
(10.1099 -0.0295426 0)
(10.1419 0.00381435 0)
(10.1977 0.0462431 0)
(10.1998 0.0249873 0)
(10.1522 0.00923198 0)
(10.0934 0.0189479 0)
(10.0841 0.0275534 0)
(10.1312 0.020208 0)
(10.1997 0.00403911 0)
(10.2505 -0.00939032 0)
(10.2615 -0.0176296 0)
(10.2327 -0.0264709 0)
(10.1791 -0.0424243 0)
(10.1201 -0.068368 0)
(10.0711 -0.103519 0)
(10.0392 -0.14353 0)
(10.0251 -0.184042 0)
(10.0229 -0.219123 0)
(10.2834 0.0704994 0)
(10.227 -0.00630892 0)
(10.2068 -0.0811544 0)
(10.2302 -0.0448895 0)
(10.268 0.0239612 0)
(10.2637 0.0429836 0)
(10.2205 0.00621427 0)
(10.1706 -0.0456342 0)
(10.1423 -0.0755041 0)
(10.1464 -0.0702242 0)
(10.1747 -0.0401613 0)
(10.2101 -0.00871101 0)
(10.2367 0.00254503 0)
(10.247 -0.0161013 0)
(10.2403 -0.0600316 0)
(10.2204 -0.115681 0)
(10.1922 -0.169338 0)
(10.1585 -0.208115 0)
(10.0938 0.0878967 0)
(10.0757 0.0674216 0)
(10.0318 0.0146921 0)
(9.99662 -0.0606135 0)
(9.99052 -0.0898252 0)
(10.0162 -0.0523537 0)
(10.0589 -0.00384539 0)
(10.0872 0.00654605 0)
(10.0903 -0.0211136 0)
(10.083 -0.0565712 0)
(10.0825 -0.0750307 0)
(10.0951 -0.0729629 0)
(10.1163 -0.0619794 0)
(10.1382 -0.0563345 0)
(10.1534 -0.0626378 0)
(10.1576 -0.0795835 0)
(10.1499 -0.101226 0)
(10.1301 -0.119939 0)
(9.64308 0.0576218 0)
(9.87494 -0.00202111 0)
(10.0416 -0.00852049 0)
(10.0933 0.0422059 0)
(10.0927 0.0788518 0)
(10.0942 0.0764441 0)
(10.1227 0.0432984 0)
(10.1594 0.000808034 0)
(10.1775 -0.0333368 0)
(10.1724 -0.0516396 0)
(10.1578 -0.0553668 0)
(10.1487 -0.0520389 0)
(10.1495 -0.0511995 0)
(10.1549 -0.0603399 0)
(10.1559 -0.080785 0)
(10.1472 -0.107866 0)
(10.1283 -0.135164 0)
(10.1018 -0.154504 0)
(10.1481 -0.0598873 0)
(10.2057 -0.0924176 0)
(10.1277 -0.0875465 0)
(10.1112 -0.0984578 0)
(10.1371 -0.109404 0)
(10.1624 -0.102341 0)
(10.1957 -0.0832274 0)
(10.2419 -0.0660159 0)
(10.2887 -0.0578864 0)
(10.3231 -0.0570907 0)
(10.3386 -0.0584151 0)
(10.3348 -0.0585684 0)
(10.3166 -0.057982 0)
(10.2914 -0.059132 0)
(10.2674 -0.0630503 0)
(10.248 -0.0692695 0)
(10.2349 -0.0758008 0)
(10.2243 -0.0799875 0)
(10.1111 -0.0616386 0)
(10.1697 -0.0495727 0)
(10.1635 0.00553359 0)
(10.1535 0.0282941 0)
(10.17 0.0275457 0)
(10.183 0.0152811 0)
(10.1883 -0.00688815 0)
(10.1899 -0.03374 0)
(10.1883 -0.0552604 0)
(10.1858 -0.0634717 0)
(10.187 -0.057182 0)
(10.1948 -0.0425824 0)
(10.2097 -0.0299613 0)
(10.2299 -0.0297101 0)
(10.2523 -0.0447476 0)
(10.2717 -0.071035 0)
(10.2847 -0.100013 0)
(10.285 -0.118652 0)
(10.0136 -0.0887842 0)
(9.97141 -0.0976405 0)
(9.96022 -0.0796249 0)
(9.96823 -0.0779545 0)
(9.99684 -0.0754081 0)
(10.0377 -0.0668311 0)
(10.0913 -0.0649258 0)
(10.1398 -0.0705472 0)
(10.1637 -0.0749438 0)
(10.1631 -0.0736106 0)
(10.1508 -0.0692787 0)
(10.1369 -0.06687 0)
(10.125 -0.06938 0)
(10.1138 -0.0767335 0)
(10.1014 -0.0855864 0)
(10.0888 -0.0931513 0)
(10.074 -0.0959095 0)
(10.0627 -0.0921451 0)
(9.88972 0.134021 0)
(9.71577 0.0679117 0)
(9.62081 0.0599225 0)
(9.52913 0.0244406 0)
(9.40534 -0.0173087 0)
(9.24364 -0.0468205 0)
(9.06061 -0.0581213 0)
(8.87152 -0.0555971 0)
(8.68666 -0.0490293 0)
(8.51591 -0.0433487 0)
(8.3665 -0.0367476 0)
(8.2401 -0.0278712 0)
(8.13032 -0.0204874 0)
(8.02428 -0.0216028 0)
(7.90496 -0.0343071 0)
(7.76382 -0.0547034 0)
(7.5968 -0.0752292 0)
(7.42065 -0.0853989 0)
(-0.0415588 -0.12649 4.0708e-20)
(-0.048894 -0.207461 -4.04633e-20)
(-0.00931114 -0.271763 0)
(0.0292583 -0.382677 0)
(0.0946947 -0.499665 0)
(0.252643 -0.499809 3.92506e-20)
(0.387893 -0.482892 0)
(0.506798 -0.475472 0)
(0.61986 -0.477284 0)
(0.739395 -0.477483 0)
(0.87272 -0.476274 -3.76132e-20)
(1.03068 -0.477078 0)
(1.21609 -0.473959 0)
(1.41657 -0.461449 0)
(1.61434 -0.438984 0)
(1.79742 -0.410383 -3.60543e-20)
(1.9629 -0.380721 0)
(2.11399 -0.353303 0)
(2.25541 -0.328961 0)
(2.3906 -0.308479 0)
(2.52218 -0.292176 0)
(2.65215 -0.277428 0)
(2.78071 -0.263763 0)
(2.90945 -0.252428 -3.38926e-20)
(3.03992 -0.240256 3.36381e-20)
(3.16936 -0.230089 -3.33855e-20)
(3.30094 -0.22125 -3.31347e-20)
(3.43138 -0.206679 0)
(3.55542 -0.198662 0)
(3.68026 -0.18384 3.23986e-20)
(3.78874 -0.163294 3.21622e-20)
(3.88754 -0.15732 0)
(3.97092 -0.11849 0)
(4.01488 -0.103518 3.15015e-20)
(4.04613 -0.0702348 0)
(3.98475 0.0125318 0)
(3.88161 0.0254029 -3.09591e-20)
(3.68218 0.216662 0)
(3.29784 0.284652 -3.06949e-20)
(2.93601 0.440403 -6.11686e-20)
(2.03554 1.00947 0)
(0.819448 0.561703 0)
(0.166539 -0.188868 0)
(-0.169646 -0.163363 0)
(-0.420455 -0.0288743 0)
(-0.607837 0.110089 -5.82654e-20)
(-0.823735 0.176926 -5.75674e-20)
(-0.998292 0.0686335 -5.69495e-20)
(-0.938967 -0.176454 0)
(-0.633281 -0.412473 5.59523e-20)
(-0.199492 -0.436899 0)
(0.0873628 -0.301913 -5.50768e-20)
(-0.10983 -0.336162 -5.45904e-20)
(0.452495 -0.377901 0)
(0.608512 -0.47761 0)
(0.820773 -0.629017 0)
(1.17405 -0.568872 -5.20029e-20)
(0.84242 0.0678814 0)
(-0.0716306 0.503462 0)
(-0.794206 0.493903 0)
(-1.39941 0.427413 0)
(-1.9408 0.360508 0)
(-2.40206 0.298519 0)
(-2.79977 0.246729 0)
(-3.13339 0.204983 0)
(-3.42178 0.173431 4.56117e-20)
(-3.6696 0.150913 0)
(-3.89287 0.136048 0)
(-4.09712 0.127694 -4.33374e-20)
(-4.2937 0.12432 -4.25967e-20)
(-4.48714 0.124852 0)
(-4.68446 0.12806 4.11149e-20)
(-4.88842 0.133216 -4.03662e-20)
(-5.10259 0.139514 0)
(-5.32818 0.146346 3.88392e-20)
(-5.56649 0.153145 0)
(-5.8175 0.159548 0)
(-6.08092 0.165263 -3.64523e-20)
(-6.35567 0.170026 0)
(-6.64029 0.173598 3.47978e-20)
(-6.93281 0.17576 0)
(-7.23078 0.176295 -3.31125e-20)
(-7.53127 0.174981 -3.22688e-20)
(-7.83079 0.171601 -3.14324e-20)
(-8.12538 0.165938 -6.12224e-20)
(-8.41049 0.157801 5.9628e-20)
(-8.68115 0.147035 0)
(-8.93188 0.133542 0)
(-9.15696 0.117299 0)
(-9.35044 0.0983729 5.41634e-20)
(-9.50634 0.0769911 5.31423e-20)
(-9.61903 0.0534242 -5.23037e-20)
(-9.68332 0.028116 0)
(-9.69388 0.00195012 5.12375e-20)
(-9.6517 -0.024757 5.1028e-20)
(-9.55388 -0.0519142 5.1039e-20)
(-9.39942 -0.0789577 0)
(-9.18798 -0.105392 0)
(-8.92045 -0.130653 0)
(-8.59888 -0.154225 5.30438e-20)
(-8.22638 -0.175658 0)
(-7.80706 -0.194578 0)
(-7.34582 -0.21071 -5.58918e-20)
(-6.84819 -0.223879 0)
(-6.32011 -0.234025 0)
(-5.76762 -0.241213 -5.88863e-20)
(-5.1967 -0.245587 0)
(-4.61308 -0.247353 0)
(-4.0221 -0.246751 6.12274e-20)
(-3.4288 -0.243983 6.17725e-20)
(-2.83794 -0.239189 0)
(-2.25421 -0.232427 -6.24514e-20)
(-1.68234 -0.223683 0)
(-1.1272 -0.212905 6.25571e-20)
(-0.593807 -0.199988 0)
(-0.0872484 -0.18495 6.20804e-20)
(0.386759 -0.168114 6.15983e-20)
(0.822561 -0.149904 0)
(1.21538 -0.130641 0)
(1.56132 -0.11061 0)
(1.85753 -0.0902264 0)
(2.10228 -0.0699611 0)
(2.29504 -0.0503135 0)
(2.43654 -0.0317518 0)
(2.52884 -0.0146015 5.45915e-20)
(2.57506 0.00116192 -5.3545e-20)
(2.57734 0.0149976 0)
(2.54311 0.0260453 0)
(2.47986 0.0341723 0)
(2.39495 0.0395375 0)
(2.29612 0.0422067 -9.67885e-20)
(2.19122 0.0422305 0)
(2.08812 0.0397436 9.30039e-20)
(1.99436 0.0350235 -9.12367e-20)
(1.9167 0.0284878 0)
(1.86074 0.020628 0)
(1.83059 0.0119116 0)
(1.8288 0.00270991 8.52048e-20)
(1.85686 -0.0065556 8.39524e-20)
(1.9146 -0.0153481 0)
(2.00055 -0.0231072 8.16872e-20)
(2.1121 -0.0293329 8.06437e-20)
(2.24562 -0.0337681 -7.96389e-20)
(2.39682 -0.0366158 0)
(2.56132 -0.0385772 0)
(2.73557 -0.0404484 -7.6722e-20)
(2.91722 -0.0421373 0)
(3.10392 -0.041504 0)
(3.28992 -0.0343573 0)
(3.46222 -0.01716 0)
(3.60089 0.00850057 7.17215e-20)
(3.68745 0.0346185 7.0683e-20)
(3.71578 0.0520818 0)
(3.69617 0.0581753 6.8567e-20)
(3.64274 0.0564257 0)
(3.56614 0.050067 0)
(3.47825 0.0400513 6.53162e-20)
(3.39268 0.0280824 0)
(3.32012 0.0179422 6.31469e-20)
(3.26243 0.0135068 0)
(3.21135 0.0160867 0)
(3.15355 0.0236578 5.99679e-20)
(3.07895 0.0323788 0)
(2.98515 0.0388823 5.78626e-20)
(2.87721 0.0414737 0)
(2.76297 0.0399271 0)
(2.65137 0.0347463 0)
(2.54806 0.0269257 -5.3675e-20)
(2.45954 0.0179806 0)
(2.38474 0.00976365 5.16318e-20)
(2.32823 0.00389986 0)
(2.27773 0.00109065 0)
(2.2431 0.00136982 0)
(2.1938 0.00365781 0)
(2.16602 0.00795944 0)
(2.08601 0.0124882 0)
(2.0646 0.0205988 0)
(1.90107 0.0272649 -8.77464e-20)
(1.92205 0.0459619 0)
(1.5333 0.0565435 0)
(0.00450788 0.0855442 -1.22366e-19)
(0.173805 0.0669629 1.21437e-19)
(0.374159 -0.0294205 0)
(0.571547 -0.115779 -7.96327e-20)
(0.781211 -0.147288 0)
(0.976806 -0.141318 -3.91481e-20)
(1.16045 -0.129609 7.75965e-20)
(1.33334 -0.142349 7.69188e-20)
(1.49537 -0.195992 0)
(1.63968 -0.275414 7.558e-20)
(1.76246 -0.36547 3.75083e-20)
(1.8651 -0.449272 0)
(1.95362 -0.505948 0)
(2.03175 -0.524954 0)
(2.09577 -0.511902 0)
(2.14025 -0.479642 3.60222e-20)
(2.1659 -0.439189 0)
(2.17998 -0.397591 -7.08749e-20)
(2.1916 -0.359213 0)
(2.20741 -0.327334 0)
(2.23107 -0.303667 6.93273e-20)
(2.26522 -0.288018 0)
(2.31162 -0.280047 -6.83229e-20)
(2.37103 -0.277976 3.39338e-20)
(2.44395 -0.279123 -3.36832e-20)
(2.52879 -0.283229 3.34333e-20)
(2.62504 -0.285959 3.31845e-20)
(2.73038 -0.28481 0)
(2.84 -0.28347 0)
(2.95758 -0.270998 -3.245e-20)
(3.07112 -0.251955 3.21784e-20)
(3.17866 -0.232544 0)
(3.29417 -0.183967 0)
(3.37457 -0.138367 -3.15478e-20)
(3.46496 -0.0734224 0)
(3.55548 0.0537545 0)
(3.6091 0.150299 3.09756e-20)
(3.68979 0.367296 0)
(3.66767 0.615536 -3.04248e-20)
(3.70977 0.833815 6.10114e-20)
(3.52901 1.35448 0)
(3.20317 1.62367 0)
(3.05342 1.77541 1.18857e-19)
(2.1754 1.52968 1.18138e-19)
(0.7505 0.505231 1.17417e-19)
(-0.0240787 0.113587 -5.80546e-20)
(-0.308448 0.0663222 5.7624e-20)
(-0.554408 -0.195546 1.70804e-19)
(-0.641878 -0.594631 -1.12691e-19)
(-0.554654 -1.05945 -5.59471e-20)
(-0.463876 -1.19275 0)
(-0.148635 -0.422058 5.50754e-20)
(0.0405912 0.0331577 -5.47102e-20)
(0.810889 -0.519099 0)
(0.980043 -0.527212 0)
(-0.0358474 0.356904 0)
(-0.784921 0.885333 5.21482e-20)
(-1.48951 1.15501 0)
(-2.11041 1.21649 -1.01479e-19)
(-2.58939 1.123 0)
(-3.00003 0.989444 -9.85419e-20)
(-3.36325 0.849039 0)
(-3.66678 0.718732 9.54348e-20)
(-3.93853 0.60708 0)
(-4.16891 0.516903 -9.23573e-20)
(-4.3795 0.44689 4.53423e-20)
(-4.5664 0.396538 0)
(-4.74344 0.362298 8.79153e-20)
(-4.91067 0.342557 4.32613e-20)
(-5.0763 0.333829 4.25252e-20)
(-5.24156 0.334181 0)
(-5.41075 0.340946 4.10508e-20)
(-5.585 0.352428 4.03054e-20)
(-5.7665 0.366674 0)
(-5.95591 0.382293 -3.8785e-20)
(-6.15391 0.398034 7.60212e-20)
(-6.36034 0.413005 0)
(-6.57492 0.426399 3.64091e-20)
(-6.79685 0.437518 0)
(-7.02504 0.445705 -1.04254e-19)
(-7.25799 0.450335 0)
(-7.49381 0.450771 9.91878e-20)
(-7.73021 0.446362 3.22464e-20)
(-7.96449 0.436446 -3.13019e-20)
(-8.1935 0.420371 -6.09227e-20)
(-8.41366 0.397538 5.92878e-20)
(-8.62097 0.36744 0)
(-8.81107 0.329725 0)
(-8.97933 0.284241 0)
(-9.12093 0.231094 -1.62017e-19)
(-9.23109 0.170728 -5.3159e-20)
(-9.30507 0.103891 5.23264e-20)
(-9.33843 0.0316969 0)
(-9.32784 -0.0442284 5.06826e-20)
(-9.26527 -0.122607 -5.10534e-20)
(-9.14831 -0.202261 -5.10615e-20)
(-8.97498 -0.281628 0)
(-8.74502 -0.359116 0)
(-8.45928 -0.433108 0)
(-8.11985 -0.502108 -5.30553e-20)
(-7.72997 -0.564796 0)
(-7.2939 -0.620071 1.09394e-19)
(-6.81671 -0.667103 1.67353e-19)
(-6.30419 -0.705366 -1.13547e-19)
(-5.76248 -0.734686 0)
(-5.19786 -0.755256 -5.86634e-20)
(-4.61647 -0.767568 0)
(-4.02416 -0.772302 -1.20949e-19)
(-3.4263 -0.770252 6.10869e-20)
(-2.82788 -0.762094 6.16543e-20)
(-2.23348 -0.748313 0)
(-1.64764 -0.729094 1.87289e-19)
(-1.07492 -0.704332 -1.25105e-19)
(-0.519858 -0.673722 -6.25653e-20)
(0.0126535 -0.636991 0)
(0.517357 -0.594135 -6.20217e-20)
(0.989043 -0.545611 -1.84565e-19)
(1.42261 -0.492154 0)
(1.81344 -0.434723 -1.20397e-19)
(2.15772 -0.374498 -1.18792e-19)
(2.45264 -0.312832 -1.1704e-19)
(2.69645 -0.251127 0)
(2.88848 -0.190767 0)
(3.02938 -0.133128 0)
(3.12082 -0.0795059 5.4563e-20)
(3.16574 -0.0309497 5.3509e-20)
(3.17076 0.0113453 0)
(3.1395 0.0460368 1.02802e-19)
(3.07689 0.072483 1.00717e-19)
(2.9898 0.0904367 0)
(2.88609 0.099761 9.67164e-20)
(2.7742 0.100515 1.89474e-19)
(2.6627 0.0930563 -9.29376e-20)
(2.55985 0.0781281 -9.105e-20)
(2.47319 0.0569048 0)
(2.40901 0.0309569 0)
(2.37199 0.00209846 0)
(2.36482 -0.0278718 -8.51593e-20)
(2.38771 -0.0573892 8.3815e-20)
(2.43962 -0.0851914 1.65399e-19)
(2.5186 -0.110385 -8.16389e-20)
(2.62223 -0.132323 8.05462e-20)
(2.7478 -0.150468 7.95903e-20)
(2.89216 -0.164413 0)
(3.0515 -0.174069 0)
(3.2213 -0.17982 -7.66592e-20)
(3.39669 -0.182312 0)
(3.57357 -0.181577 0)
(3.75033 -0.175878 1.47428e-19)
(3.92939 -0.161773 0)
(4.11645 -0.136573 7.16681e-20)
(4.3165 -0.101506 -7.06339e-20)
(4.52737 -0.0618923 0)
(4.73197 -0.023324 6.84886e-20)
(4.90508 0.010956 0)
(5.02624 0.0377252 0)
(5.08838 0.0527781 -6.52196e-20)
(5.10128 0.0545006 1.28255e-19)
(5.08614 0.0471312 -6.30446e-20)
(5.06474 0.0394521 0)
(5.04775 0.0390659 0)
(5.03045 0.0471671 5.98598e-20)
(5.00031 0.0589166 0)
(4.94888 0.0682746 5.77506e-20)
(4.87962 0.0722577 0)
(4.80314 0.0711343 0)
(4.73223 0.066726 0)
(4.67307 0.0603862 5.35758e-20)
(4.63024 0.0533755 0)
(4.59797 0.0460965 -5.15352e-20)
(4.57754 0.0400466 0)
(4.55373 0.034962 0)
(4.53689 0.032973 9.7123e-20)
(4.49916 0.0318735 -9.51748e-20)
(4.47844 0.0357908 0)
(4.41059 0.039036 0)
(4.39562 0.0514652 0)
(4.26781 0.0598495 2.62684e-19)
(4.28336 0.0873197 0)
(4.01928 0.105407 -1.67734e-19)
(0.0818015 -0.207252 -5.26057e-23)
(0.367718 -0.536183 -1.61809e-19)
(0.626428 -0.719182 0)
(0.853127 -0.804561 1.589e-19)
(1.03731 -0.8297 0)
(1.17651 -0.814611 0)
(1.28518 -0.799875 -6.20627e-23)
(1.37449 -0.820437 -7.68818e-20)
(1.43062 -0.861667 -7.61734e-20)
(1.45033 -0.866704 -7.56054e-20)
(1.4243 -0.838603 0)
(1.31894 -0.767304 0)
(1.16337 -0.639018 7.37989e-20)
(0.999151 -0.465836 1.46489e-19)
(0.844576 -0.290504 -1.45407e-19)
(0.707378 -0.158712 0)
(0.594162 -0.0891337 -1.43294e-19)
(0.510749 -0.0729071 7.12093e-20)
(0.459306 -0.0916161 0)
(0.437849 -0.130572 -1.40178e-19)
(0.443713 -0.180379 -6.966e-20)
(0.474844 -0.234651 1.38132e-19)
(0.528786 -0.289861 6.86384e-20)
(0.603407 -0.343826 0)
(0.697853 -0.392735 -1.35097e-19)
(0.809524 -0.433899 -1.3409e-19)
(0.936015 -0.466929 0)
(1.07494 -0.489291 -1.32084e-19)
(1.22383 -0.496283 0)
(1.37864 -0.488463 -1.3011e-19)
(1.53631 -0.468441 -6.4618e-20)
(1.69556 -0.425203 0)
(1.85254 -0.357258 0)
(2.00386 -0.28757 0)
(2.16397 -0.175114 0)
(2.31244 -0.0171376 0)
(2.45097 0.114404 0)
(2.647 0.349048 -1.23074e-19)
(2.82555 0.646495 1.83416e-19)
(3.05726 0.913384 0)
(3.29619 1.37496 0)
(3.49387 1.79904 0)
(3.77615 2.16557 -2.81094e-22)
(3.66481 2.38038 -1.17559e-19)
(3.20704 2.23194 -2.32957e-19)
(2.64531 1.91584 2.30852e-19)
(1.84437 1.36799 1.14352e-19)
(1.09892 0.725141 -1.13535e-19)
(0.543671 0.134505 4.83487e-23)
(0.221638 -0.631574 -1.11845e-19)
(-0.217711 -1.1599 0)
(-0.686923 -0.642296 -1.10377e-19)
(0.346485 -0.900391 -3.81139e-22)
(0.0784749 -0.646205 0)
(-0.728673 0.700637 0)
(-1.37957 1.4039 1.05659e-19)
(-1.90498 1.67666 0)
(-2.3439 1.80042 0)
(-2.63955 1.75 -1.00694e-19)
(-2.89604 1.60532 -1.98995e-19)
(-3.0928 1.4136 9.84592e-20)
(-3.28755 1.21828 0)
(-3.45154 1.03977 -9.54244e-20)
(-3.61639 0.886168 0)
(-3.76236 0.762615 -9.18541e-20)
(-3.90559 0.666242 -9.09021e-20)
(-4.03885 0.596974 1.78556e-19)
(-4.17109 0.550195 8.77629e-20)
(-4.30214 0.523792 0)
(-4.43665 0.513481 -1.70109e-19)
(-4.576 0.516336 0)
(-4.72235 0.528701 -2.46543e-19)
(-4.87711 0.547668 -1.61423e-19)
(-5.04125 0.570499 -1.58421e-19)
(-5.2153 0.595232 1.55354e-19)
(-5.39923 0.62023 -2.28313e-19)
(-5.59302 0.644094 0)
(-5.79632 0.665583 0)
(-6.00852 0.68361 1.42412e-19)
(-6.22869 0.69716 2.0858e-19)
(-6.45562 0.705232 0)
(-6.6877 0.706802 -6.61633e-20)
(-6.92295 0.700815 0)
(-7.15888 0.686215 1.88e-19)
(-7.39248 0.661976 3.92994e-22)
(-7.62015 0.627154 -4.68093e-22)
(-7.8377 0.580945 -1.15372e-19)
(-8.04033 0.522757 0)
(-8.22268 0.452289 1.09644e-19)
(-8.37901 0.3696 7.58451e-22)
(-8.50331 0.275151 0)
(-8.58957 0.169883 0)
(-8.63204 0.0551976 0)
(-8.62572 -0.0671895 -1.02049e-19)
(-8.56637 -0.195069 0)
(-8.45069 -0.32585 0)
(-8.27648 -0.456858 0)
(-8.04288 -0.585255 0)
(-7.75048 -0.708244 0)
(-7.40128 -0.823196 -1.04959e-19)
(-6.99858 -0.927764 0)
(-6.54688 -1.01994 -1.09435e-19)
(-6.05172 -1.09816 -1.11494e-19)
(-5.51941 -1.16137 1.13584e-19)
(-4.95686 -1.20916 0)
(-4.37113 -1.24178 1.1759e-19)
(-3.76918 -1.26013 0)
(-3.15764 -1.26553 1.2099e-19)
(-2.54256 -1.25952 -1.22361e-19)
(-1.92952 -1.24349 -3.69984e-19)
(-1.32371 -1.21842 0)
(-0.730223 -1.1848 -3.74335e-19)
(-0.154182 -1.14257 -1.24881e-19)
(0.39891 -1.09122 0)
(0.923534 -1.0303 -2.48967e-19)
(1.41429 -0.959899 -2.47562e-19)
(1.86615 -0.880638 3.6849e-19)
(2.27491 -0.793574 0)
(2.6375 -0.700158 1.20218e-19)
(2.95203 -0.602191 1.18629e-19)
(3.21753 -0.501738 3.50731e-19)
(3.43372 -0.400965 0)
(3.60089 -0.30201 0)
(3.71994 -0.206946 0)
(3.79262 -0.117619 1.09023e-19)
(3.82123 -0.0360355 0)
(3.80858 0.0355574 0)
(3.7596 0.0955126 -1.02719e-19)
(3.6804 0.142584 -1.00635e-19)
(3.57787 0.175787 0)
(3.45964 0.19451 0)
(3.33392 0.198612 -1.89325e-19)
(3.20916 0.188559 0)
(3.09369 0.165538 1.82093e-19)
(2.99516 0.131495 1.78564e-19)
(2.91994 0.0890424 0)
(2.87246 0.0412547 0)
(2.85498 -0.00867632 -1.69956e-19)
(2.86774 -0.0578832 -1.40242e-22)
(2.90934 -0.104236 -1.14631e-22)
(2.97739 -0.146307 0)
(3.06897 -0.183059 -3.22022e-19)
(3.18038 -0.213589 0)
(3.30663 -0.237187 0)
(3.44131 -0.253713 0)
(3.57752 -0.263875 1.53255e-19)
(3.70997 -0.2688 0)
(3.83703 -0.26888 -2.98702e-19)
(3.96173 -0.263143 -1.47375e-19)
(4.09092 -0.250394 0)
(4.23274 -0.231328 -1.43306e-19)
(4.39276 -0.208388 0)
(4.57104 -0.18192 0)
(4.76166 -0.147793 -4.10857e-19)
(4.95326 -0.101751 2.69574e-19)
(5.12821 -0.0467482 0)
(5.26226 0.00497846 2.60841e-19)
(5.33437 0.0386334 -1.28229e-19)
(5.34182 0.0474889 0)
(5.30666 0.0388007 0)
(5.26699 0.0295962 0)
(5.25462 0.034544 -3.59077e-19)
(5.27645 0.0561614 0)
(5.31326 0.0847214 -1.1547e-19)
(5.33641 0.106872 0)
(5.32666 0.114263 0)
(5.28491 0.107051 0)
(5.22506 0.0900513 0)
(5.166 0.0696475 0)
(5.11851 0.0499851 0)
(5.09098 0.0357044 -2.02058e-19)
(5.07761 0.0273681 0)
(5.0795 0.0276163 -9.70767e-20)
(5.07707 0.031346 2.85366e-19)
(5.07983 0.0419178 0)
(5.05637 0.0501821 0)
(5.04671 0.0681836 -1.78698e-19)
(4.9892 0.0810806 -1.74997e-19)
(4.98235 0.115024 1.71169e-19)
(4.88406 0.142646 1.67616e-19)
(0.181303 -0.947848 2.44949e-19)
(0.47068 -1.51175 2.42725e-19)
(0.653215 -1.56901 1.60413e-19)
(0.754255 -1.48237 7.95369e-20)
(0.787769 -1.33279 0)
(0.766937 -1.13451 -1.56435e-19)
(0.705858 -0.961227 7.75813e-20)
(0.557248 -0.808523 0)
(0.301853 -0.548988 7.64518e-20)
(0.0121197 -0.0994248 0)
(-0.227301 0.201644 -1.50419e-19)
(-0.435726 0.181339 0)
(-0.597836 0.0946959 -7.39541e-20)
(-0.716961 0.0433293 -1.46673e-19)
(-0.812801 0.00978616 1.45477e-19)
(-0.893717 -0.0206727 0)
(-0.9642 -0.0562215 1.43189e-19)
(-1.02462 -0.100675 0)
(-1.07191 -0.154722 0)
(-1.10216 -0.217701 1.39945e-19)
(-1.11058 -0.287833 0)
(-1.09349 -0.362943 -3.66209e-22)
(-1.049 -0.440912 0)
(-0.976181 -0.519025 0)
(-0.874468 -0.593297 3.24936e-22)
(-0.744859 -0.659688 1.34087e-19)
(-0.589571 -0.715053 1.32898e-19)
(-0.413358 -0.757773 1.3227e-19)
(-0.217956 -0.782901 0)
(-0.00999489 -0.785154 2.60768e-19)
(0.206236 -0.76381 0)
(0.424749 -0.724908 1.28444e-19)
(0.644901 -0.66671 0)
(0.862956 -0.580357 0)
(1.08038 -0.460886 -1.25863e-19)
(1.2981 -0.335665 0)
(1.51887 -0.201614 1.24249e-19)
(1.75867 0.0295647 -6.72234e-23)
(2.0084 0.290167 -2.45064e-19)
(2.2967 0.523618 2.43227e-19)
(2.6262 0.907541 0)
(2.97205 1.33442 0)
(3.40344 1.7486 1.18281e-19)
(3.75674 2.19342 0)
(3.96714 2.52862 1.16078e-19)
(4.04414 2.62481 -1.14843e-19)
(3.74356 2.48157 -1.13753e-19)
(3.20445 2.17617 0)
(2.63848 1.60608 1.11976e-19)
(1.97145 0.916078 1.11415e-19)
(1.27833 -0.0935112 -2.22727e-19)
(0.108636 -0.852896 1.1039e-19)
(0.324879 -0.780892 1.09575e-19)
(-0.347697 0.267821 0)
(-1.18068 1.4404 0)
(-1.62699 2.0148 -1.05514e-19)
(-1.9864 2.1911 0)
(-2.27382 2.21853 0)
(-2.46097 2.07309 2.01983e-19)
(-2.6393 1.87584 1.99017e-19)
(-2.76513 1.64559 0)
(-2.89783 1.42582 0)
(-3.00777 1.22687 0)
(-3.1213 1.0575 0)
(-3.22431 0.920274 1.84394e-19)
(-3.32649 0.813894 -1.81161e-19)
(-3.42572 0.73789 -1.78727e-19)
(-3.52605 0.688938 -3.51648e-19)
(-3.6305 0.664232 0)
(-3.74096 0.659298 4.64382e-23)
(-3.86046 0.669834 0)
(-3.98974 0.691219 1.64544e-19)
(-4.1304 0.719681 -5.97831e-23)
(-4.28194 0.752314 1.58591e-19)
(-4.44461 0.786924 -1.5552e-19)
(-4.61831 0.821533 -5.18735e-23)
(-4.80327 0.85451 0)
(-4.99916 0.884482 -1.4589e-19)
(-5.2058 0.910203 -1.42557e-19)
(-5.42279 0.930467 -2.78222e-19)
(-5.64964 0.944042 0)
(-5.88555 0.949626 1.32021e-19)
(-6.12935 0.945866 0)
(-6.3793 0.931355 -2.50262e-19)
(-6.63296 0.904628 1.21937e-19)
(-6.88702 0.864187 -1.1863e-19)
(-7.13716 0.808565 1.15457e-19)
(-7.37799 0.73644 2.23285e-19)
(-7.60308 0.646769 -1.09715e-19)
(-7.80519 0.538956 1.07251e-19)