/*--------------------------------*- C++ -*----------------------------------*\
  =========                 |
  \\      /  F ield         | OpenFOAM: The Open Source CFD Toolbox
   \\    /   O peration     | Website:  https://openfoam.org
    \\  /    A nd           | Version:  6
     \\/     M anipulation  |
\*---------------------------------------------------------------------------*/
FoamFile
{
    version     2.0;
    format      ascii;
    class       volScalarField;
    location    "0.35";
    object      k;
}
// * * * * * * * * * * * * * * * * * * * * * * * * * * * * * * * * * * * * * //

dimensions      [0 2 -2 0 0 0 0];

internalField   nonuniform List<scalar> 
12225
(
0.000245747
0.000194537
0.00017512
0.000168296
0.00013567
6.95048e-05
3.979e-05
3.36472e-05
3.64312e-05
5.64506e-05
8.22586e-05
9.42764e-05
9.83578e-05
0.00010018
0.000103657
0.000118984
0.000176656
0.000417744
2.41162e-05
2.76196e-05
3.62173e-05
4.05119e-05
3.96937e-05
3.27902e-05
2.59961e-05
2.3871e-05
2.38475e-05
2.5359e-05
3.08861e-05
4.44629e-05
5.7218e-05
6.58638e-05
6.9933e-05
7.37535e-05
8.16119e-05
0.000105962
2.00621e-05
1.6527e-05
1.49633e-05
1.53134e-05
1.63778e-05
1.65635e-05
1.64268e-05
1.61581e-05
1.6098e-05
1.61831e-05
1.66158e-05
1.78259e-05
2.07647e-05
2.42863e-05
2.73501e-05
2.97097e-05
3.14422e-05
3.48279e-05
2.00259e-05
1.99644e-05
2.00386e-05
2.00975e-05
2.00701e-05
1.97726e-05
1.91638e-05
1.84403e-05
1.70535e-05
1.25119e-05
8.20661e-06
7.59054e-06
8.61346e-06
1.2397e-05
1.56217e-05
1.77452e-05
1.88397e-05
1.9621e-05
2.24403e-05
2.11822e-05
2.1492e-05
2.68967e-05
3.46954e-05
3.60268e-05
3.4331e-05
2.91032e-05
2.53198e-05
2.3711e-05
2.29348e-05
2.15473e-05
2.03877e-05
1.9857e-05
1.9704e-05
1.97115e-05
1.97286e-05
1.97608e-05
2.7727e-05
2.67368e-05
2.20697e-05
2.26527e-05
2.78412e-05
4.30946e-05
5.05696e-05
5.03454e-05
4.6702e-05
4.43307e-05
4.38119e-05
4.30742e-05
3.92972e-05
3.0146e-05
2.47566e-05
2.22178e-05
2.11736e-05
2.08989e-05
2.08187e-05
2.26299e-05
2.23263e-05
2.42129e-05
3.86837e-05
5.04818e-05
4.96168e-05
4.59615e-05
4.59956e-05
4.92357e-05
5.3734e-05
5.50638e-05
5.42431e-05
4.83302e-05
3.70834e-05
2.95648e-05
2.5226e-05
2.29159e-05
2.2868e-05
2.29034e-05
2.34823e-05
2.55903e-05
2.5027e-05
2.35617e-05
2.3654e-05
2.58953e-05
3.39708e-05
5.59371e-05
0.000135341
0.000263436
0.000322322
0.000326536
0.000297615
0.000190347
0.000105806
6.18143e-05
2.11127e-05
2.68202e-05
2.77959e-05
2.53386e-05
2.27062e-05
2.18022e-05
2.17287e-05
2.21062e-05
2.39331e-05
3.0912e-05
5.74693e-05
0.000140407
0.000206336
0.00022802
0.000225675
0.000192534
0.000123769
7.87749e-05
2.01636e-05
2.36313e-05
2.96908e-05
2.84981e-05
2.40999e-05
2.29727e-05
2.30706e-05
2.45324e-05
2.964e-05
4.83232e-05
9.97883e-05
0.000133384
0.000140654
0.000137385
0.000118685
8.75858e-05
6.33252e-05
4.78362e-05
2.04146e-05
2.18705e-05
2.52093e-05
3.67902e-05
4.0114e-05
3.64858e-05
2.91406e-05
2.76268e-05
2.90872e-05
3.98111e-05
9.12518e-05
0.000155499
0.000176049
0.000174532
0.000151753
9.85737e-05
6.38246e-05
4.53093e-05
2.02341e-05
2.55939e-05
2.92423e-05
2.96252e-05
2.94543e-05
2.8823e-05
2.61737e-05
2.46038e-05
2.45054e-05
2.56143e-05
3.28714e-05
4.93289e-05
5.87678e-05
6.10307e-05
5.94417e-05
5.01387e-05
3.97543e-05
3.41465e-05
2.16508e-05
2.31059e-05
2.26646e-05
2.23561e-05
2.26009e-05
2.36063e-05
2.44134e-05
2.48354e-05
2.50466e-05
2.52358e-05
2.56318e-05
2.62346e-05
2.66832e-05
2.69421e-05
2.72301e-05
2.77577e-05
2.97995e-05
3.22091e-05
2.08525e-05
2.05656e-05
2.06943e-05
2.10302e-05
2.142e-05
2.1775e-05
2.23124e-05
2.35078e-05
2.62978e-05
2.83802e-05
2.91826e-05
2.92371e-05
2.87281e-05
2.70819e-05
2.65099e-05
2.65416e-05
2.69335e-05
2.85153e-05
2.71224e-05
2.12034e-05
2.03141e-05
2.10714e-05
2.49502e-05
2.90147e-05
3.01631e-05
3.00368e-05
2.84655e-05
2.61144e-05
2.493e-05
2.4624e-05
2.46521e-05
2.48387e-05
2.55493e-05
2.64699e-05
2.68692e-05
2.69068e-05
2.00303e-05
2.01196e-05
2.02316e-05
2.04601e-05
2.12614e-05
2.26328e-05
2.32583e-05
2.33703e-05
2.32816e-05
2.27967e-05
2.25412e-05
2.2595e-05
2.30968e-05
2.32236e-05
2.30513e-05
2.30509e-05
2.36669e-05
2.68182e-05
2.08411e-05
2.05006e-05
2.03977e-05
2.03889e-05
2.04136e-05
2.06032e-05
2.15657e-05
2.40809e-05
2.56401e-05
2.6156e-05
2.618e-05
2.5906e-05
2.46736e-05
2.30872e-05
2.22948e-05
2.20861e-05
2.21193e-05
2.25945e-05
2.31613e-05
2.6166e-05
2.48566e-05
2.17304e-05
2.09782e-05
2.09152e-05
2.1e-05
2.11278e-05
2.12208e-05
2.13214e-05
2.15063e-05
2.21226e-05
2.30586e-05
2.32928e-05
2.31567e-05
2.29943e-05
2.30771e-05
2.36147e-05
2.05618e-05
2.04308e-05
2.04108e-05
2.08745e-05
2.26569e-05
2.37009e-05
2.38505e-05
2.36015e-05
2.2653e-05
2.20579e-05
2.1847e-05
2.18274e-05
2.18798e-05
2.19477e-05
2.1951e-05
2.19075e-05
2.1881e-05
2.19205e-05
2.05317e-05
2.02463e-05
2.04216e-05
2.06995e-05
2.12375e-05
2.21398e-05
2.24542e-05
2.23924e-05
2.20556e-05
2.14281e-05
2.10211e-05
2.08231e-05
2.07716e-05
2.07795e-05
2.08755e-05
2.13477e-05
2.26141e-05
2.34647e-05
2.31013e-05
2.11544e-05
2.11789e-05
2.11604e-05
2.11672e-05
2.12723e-05
2.1229e-05
2.10072e-05
2.07701e-05
2.06677e-05
2.06382e-05
2.06384e-05
2.06654e-05
2.07817e-05
2.11886e-05
2.17122e-05
2.20757e-05
2.22815e-05
2.08079e-05
2.10787e-05
2.10695e-05
2.10987e-05
2.13739e-05
2.27696e-05
2.42432e-05
2.43048e-05
2.34115e-05
2.17654e-05
2.09414e-05
2.05983e-05
2.05111e-05
2.05232e-05
2.06313e-05
2.0873e-05
2.10166e-05
2.10853e-05
2.35253e-05
2.40382e-05
2.20712e-05
2.10234e-05
2.10251e-05
2.1688e-05
2.21357e-05
2.20391e-05
2.16429e-05
2.1438e-05
2.13639e-05
2.13483e-05
2.13647e-05
2.15301e-05
2.21727e-05
2.25222e-05
2.24937e-05
2.20903e-05
2.04708e-05
2.28023e-05
2.34896e-05
2.31139e-05
2.17315e-05
2.1452e-05
2.15426e-05
2.15157e-05
2.15148e-05
2.15285e-05
2.15264e-05
2.15214e-05
2.15329e-05
2.1646e-05
2.1744e-05
2.16293e-05
2.14789e-05
2.14224e-05
2.31425e-05
2.30817e-05
2.2754e-05
2.19913e-05
2.17674e-05
2.2652e-05
2.3081e-05
2.22013e-05
2.11075e-05
2.07054e-05
2.0597e-05
2.05896e-05
2.06384e-05
2.08492e-05
2.10498e-05
2.11758e-05
2.12407e-05
2.12586e-05
2.05444e-05
2.11091e-05
2.09608e-05
2.09742e-05
2.11472e-05
2.15231e-05
2.13991e-05
2.07312e-05
2.03609e-05
2.02834e-05
2.03021e-05
2.04783e-05
2.07987e-05
2.09921e-05
2.10996e-05
2.1149e-05
2.11567e-05
2.1146e-05
2.0126e-05
2.2046e-05
2.34147e-05
2.34193e-05
2.23208e-05
2.06617e-05
1.98637e-05
1.95854e-05
1.95528e-05
1.95955e-05
1.97277e-05
1.97567e-05
1.96909e-05
1.91854e-05
1.86093e-05
1.83284e-05
1.79751e-05
1.76409e-05
2.00448e-05
1.84855e-05
1.85318e-05
1.82636e-05
1.69099e-05
1.59718e-05
1.58395e-05
1.59291e-05
1.64054e-05
1.68902e-05
1.69751e-05
1.69252e-05
1.66484e-05
1.61026e-05
1.58286e-05
1.5772e-05
1.58062e-05
1.60266e-05
2.01179e-05
2.49413e-05
3.97074e-05
4.43214e-05
4.35381e-05
3.88674e-05
3.72672e-05
3.83516e-05
4.15473e-05
4.21101e-05
4.14994e-05
3.8151e-05
3.37162e-05
3.18648e-05
3.16225e-05
3.2109e-05
3.4511e-05
4.29036e-05
3.81121e-05
0.000124846
0.00034842
0.00040718
0.000374956
0.000240087
0.000160596
0.000134575
0.000126754
0.000119064
9.91546e-05
7.76846e-05
6.83366e-05
6.71132e-05
7.01733e-05
8.92638e-05
0.000122572
0.000141888
0.0845455
0.196578
0.215508
0.212817
0.203679
0.183366
0.16374
0.153004
0.144568
0.140314
0.136214
0.133865
0.134385
0.136017
0.139591
0.144868
0.144414
0.140358
0.138366
0.126661
0.117581
0.134481
0.177578
0.176515
0.166909
0.202003
0.214583
0.226365
0.4099
0.411895
0.383438
0.369495
0.32057
0.277664
0.260893
0.246638
0.226368
0.217303
0.207888
0.199893
0.195977
0.189859
0.187127
0.18283
0.178916
0.173851
0.168422
0.16203
0.154684
0.148161
0.140888
0.135495
0.129874
0.126409
0.120722
0.116198
0.111284
0.107193
0.103523
0.100418
0.0977632
0.0955882
0.0943181
0.0940778
0.0942196
0.0948528
0.096138
0.0979264
0.100637
0.104813
0.111303
0.120748
0.127668
0.143645
0.157164
0.170675
0.173956
0.171007
0.166592
0.173244
0.199853
0.293855
0.375765
0.585606
0.667205
0.67365
0.672523
0.642867
0.734042
0.439748
0.193019
0.13953
0.122213
0.10515
0.0921758
0.0762168
0.0673652
0.056367
0.05089
0.0447949
0.0420499
0.0407393
0.0404675
0.0406948
0.0408255
0.0410413
0.0411968
0.0414793
0.0417034
0.041936
0.0423069
0.0426084
0.0430081
0.0432633
0.0436465
0.0438909
0.0440974
0.0443431
0.0445558
0.0447426
0.044913
0.0450623
0.0452123
0.0453732
0.045511
0.0456025
0.0455724
0.045346
0.0449935
0.0445002
0.0438795
0.0430694
0.0420468
0.0408808
0.0395026
0.0378726
0.0361507
0.0345481
0.0331756
0.0321148
0.0314206
0.0310421
0.030937
0.0309527
0.0309474
0.0309421
0.0308627
0.0306793
0.0305028
0.0303316
0.0298795
0.0287317
0.0287852
0.0314867
0.0410685
0.0400273
0.0811919
0.231115
0.258329
0.239146
0.211445
0.193707
0.180199
0.167464
0.161286
0.162645
0.166501
0.175823
0.197976
0.259632
0.292587
0.292714
0.275081
0.25065
0.24401
0.257669
0.34283
0.413235
0.409941
0.298981
0.118371
0.228854
0.187508
0.136103
0.103384
0.0920858
0.0928946
0.0959818
0.100289
0.104942
0.108705
0.110283
0.111739
0.113283
0.114984
0.11862
0.122152
0.126463
0.132591
0.130846
0.118374
0.113423
0.121452
0.111396
0.11768
0.232058
0.37046
0.394064
0.401144
0.371435
0.335641
0.290499
0.230664
0.204501
0.176189
0.149759
0.131478
0.117198
0.10682
0.0966751
0.0911507
0.0832659
0.0794553
0.0733551
0.0686993
0.064002
0.0586397
0.0543074
0.0497527
0.0462039
0.0435617
0.0408209
0.0391357
0.0373444
0.0357011
0.0348915
0.0342653
0.0338398
0.033654
0.0336178
0.034034
0.0351584
0.0366206
0.0384905
0.0409726
0.044301
0.0490015
0.0555835
0.065134
0.0786168
0.100512
0.127776
0.169932
0.211386
0.231602
0.240385
0.253684
0.258156
0.255546
0.240253
0.216536
0.230978
0.280004
0.438877
0.45124
0.490295
0.651513
0.662108
0.524104
0.218027
0.113363
0.0821476
0.0679117
0.0554076
0.0492744
0.0436125
0.040986
0.0384843
0.0372918
0.0360498
0.0355037
0.0349211
0.0344816
0.0342571
0.0340966
0.034033
0.0340178
0.0341816
0.0344835
0.0349088
0.0355526
0.0365337
0.0377179
0.0390552
0.0405366
0.0420024
0.0432027
0.0440656
0.0449147
0.0456155
0.0462308
0.0467784
0.0472524
0.0477441
0.0484513
0.0491021
0.0495698
0.0495128
0.0493269
0.0493306
0.0494551
0.0495964
0.0496437
0.0496246
0.0492945
0.0484732
0.0475098
0.0464373
0.0452244
0.0440565
0.0430377
0.0420422
0.0412675
0.0407078
0.0402587
0.0398246
0.0393382
0.0386355
0.0381291
0.037643
0.0371284
0.0368787
0.0365483
0.0364399
0.0366907
0.0358942
0.0433395
0.0728747
0.150187
0.212255
0.205578
0.159151
0.122151
0.102254
0.0889248
0.0802016
0.0738952
0.0700538
0.0697512
0.0714121
0.0791215
0.0806099
0.07518
0.0588279
0.053838
0.0587897
0.0850365
0.180949
0.234018
0.215116
0.152235
0.112612
0.07008
0.0601467
0.0637103
0.0724631
0.085543
0.0965514
0.107258
0.117888
0.123928
0.124542
0.123706
0.120858
0.11868
0.116303
0.114351
0.114582
0.118421
0.12467
0.11681
0.0898292
0.0803415
0.104053
0.274313
0.343987
0.364484
0.365491
0.327362
0.265704
0.194715
0.139821
0.113953
0.0868648
0.0662109
0.0536036
0.0421617
0.036406
0.0301727
0.0271574
0.0236015
0.0216142
0.0193696
0.0180651
0.0163472
0.0154632
0.0143565
0.0137998
0.0134585
0.0133592
0.0139445
0.014935
0.0159979
0.0166955
0.0171748
0.0174373
0.0175914
0.0176331
0.0176435
0.0176839
0.0178347
0.0180192
0.0182548
0.018722
0.0196343
0.0213073
0.0242374
0.02912
0.0382488
0.0536859
0.0759111
0.115509
0.187451
0.230793
0.244191
0.251765
0.266066
0.288858
0.293979
0.289995
0.26105
0.234529
0.240469
0.282566
0.353244
0.566635
0.606616
0.412085
0.178446
0.0901196
0.0592604
0.047137
0.0399675
0.0347557
0.0318441
0.0293642
0.0282279
0.0273376
0.0269551
0.0268225
0.0269444
0.0275343
0.0279228
0.0282137
0.0283147
0.0283162
0.0280289
0.0276892
0.0271903
0.0267064
0.0261163
0.0256835
0.025457
0.0255172
0.0258778
0.0269197
0.0286636
0.0310209
0.0334352
0.0355721
0.0374693
0.039163
0.040515
0.0415209
0.0422487
0.0426205
0.043008
0.0433945
0.0437403
0.0443046
0.0450777
0.0455918
0.0455637
0.0452206
0.0443729
0.0424764
0.04009
0.0375609
0.0352098
0.03355
0.0326017
0.0322359
0.0320823
0.0317436
0.0314907
0.0311355
0.0308351
0.030418
0.0294649
0.0286413
0.0277199
0.0273618
0.0276763
0.0283957
0.030289
0.0314141
0.0328713
0.0371634
0.0494114
0.0877235
0.156737
0.15679
0.145853
0.11542
0.0877466
0.0632678
0.0488256
0.0458569
0.0454572
0.0427522
0.0396167
0.0378043
0.0336521
0.0312606
0.0330852
0.0454787
0.0844846
0.183911
0.240328
0.213124
0.0777353
0.0714608
0.0468915
0.0519504
0.0665627
0.0886009
0.109426
0.126708
0.138596
0.14443
0.145331
0.144732
0.143017
0.139306
0.131688
0.121384
0.113441
0.111536
0.115205
0.118413
0.102696
0.0742674
0.0880343
0.232247
0.320336
0.33543
0.331391
0.274999
0.213073
0.144797
0.0941582
0.0709645
0.0524644
0.0377689
0.0309046
0.0254467
0.0223492
0.0206477
0.0189965
0.0182084
0.0171359
0.0165803
0.015699
0.0152516
0.0148114
0.0146719
0.0146129
0.014602
0.0146216
0.0146918
0.0148009
0.0149136
0.0150248
0.0151223
0.0151941
0.0152316
0.0152443
0.0152433
0.0151592
0.0149569
0.0146922
0.0142682
0.0136221
0.0128871
0.0122296
0.0120137
0.0122797
0.0135217
0.0174292
0.028193
0.0567954
0.111941
0.191904
0.231403
0.242747
0.251813
0.27052
0.304754
0.31646
0.314852
0.302303
0.249448
0.237218
0.256188
0.419353
0.543771
0.398831
0.168513
0.0822764
0.0519893
0.0406233
0.0354402
0.032233
0.0307037
0.0299278
0.0295646
0.0294821
0.0301847
0.0314766
0.032858
0.0342956
0.0351442
0.0355273
0.0356318
0.0352219
0.0344346
0.0333781
0.032038
0.0304843
0.02893
0.0271398
0.0257489
0.024514
0.0237051
0.0228074
0.0222053
0.0217959
0.0219093
0.0228534
0.0246913
0.0266443
0.0288952
0.030916
0.0330896
0.0349127
0.0365505
0.0376627
0.0385358
0.0392005
0.0398627
0.0403917
0.0408179
0.0416904
0.042944
0.043937
0.0439621
0.043703
0.043029
0.0417958
0.0405705
0.0387435
0.0370348
0.0342263
0.0316728
0.0307162
0.0305599
0.0305898
0.0306398
0.0305456
0.0299961
0.0292631
0.0290148
0.0290113
0.0291398
0.0298767
0.0315325
0.0322558
0.0332528
0.0354081
0.0423397
0.0609308
0.108089
0.115193
0.10764
0.0822898
0.0541914
0.0352738
0.0251924
0.0214465
0.0200219
0.0198605
0.0206621
0.0214809
0.0222074
0.0283582
0.0648958
0.159423
0.224164
0.24044
0.180042
0.0652695
0.0665023
0.0384506
0.055998
0.0824871
0.106925
0.129456
0.145057
0.153887
0.155255
0.154406
0.152192
0.150459
0.14662
0.135429
0.121453
0.111831
0.108961
0.110324
0.102116
0.0762135
0.0793126
0.180752
0.292624
0.312918
0.306018
0.249534
0.184955
0.127308
0.0725803
0.0502148
0.0384491
0.0286099
0.0241366
0.0219654
0.020578
0.0197376
0.019016
0.0182936
0.017789
0.0170832
0.0165854
0.0158819
0.0154285
0.0150578
0.0149902
0.0149852
0.0150177
0.0151912
0.0155551
0.0159054
0.0162421
0.0165389
0.0167699
0.0169022
0.0169626
0.0169744
0.0168768
0.0167478
0.0162887
0.0157988
0.0150983
0.0140259
0.0129025
0.0115275
0.0106918
0.0104227
0.0104437
0.0118105
0.0177572
0.0400319
0.0962181
0.186336
0.226463
0.23748
0.235116
0.256963
0.312705
0.329472
0.327569
0.307177
0.244457
0.226667
0.261639
0.464433
0.445437
0.190002
0.0863019
0.0511181
0.0390119
0.034256
0.0321769
0.0312889
0.0309809
0.0309736
0.0322867
0.0348704
0.0387432
0.0431927
0.0461135
0.0484665
0.0495537
0.0499953
0.0500112
0.0489265
0.0473923
0.0452169
0.0429374
0.0402815
0.037539
0.0347954
0.0319677
0.0289753
0.0265054
0.0243154
0.022465
0.0210809
0.0200266
0.0193075
0.0193067
0.020556
0.0225262
0.0247019
0.0266807
0.0289301
0.031403
0.0335936
0.035316
0.0366414
0.0376677
0.0383766
0.038602
0.0385498
0.0382586
0.0373015
0.0346824
0.0302225
0.0256698
0.021576
0.0190784
0.0167923
0.0158301
0.0160666
0.0171736
0.0207137
0.0263015
0.029809
0.0317535
0.0317821
0.0313082
0.0300487
0.0282748
0.0249285
0.0233925
0.023351
0.0240775
0.0267178
0.0304111
0.0325603
0.0343931
0.0387768
0.0542648
0.0675797
0.0671759
0.0614593
0.0475949
0.03255
0.0204893
0.0132255
0.00993168
0.00917053
0.00944482
0.0104433
0.0123838
0.0215534
0.0726074
0.175931
0.227096
0.223614
0.129652
0.0618057
0.0653293
0.0307322
0.0701933
0.0993498
0.129864
0.149116
0.162207
0.169859
0.169696
0.166475
0.160056
0.152709
0.142987
0.130439
0.117879
0.108004
0.102512
0.0938301
0.0790144
0.0767627
0.135671
0.26152
0.289084
0.289847
0.237193
0.171791
0.123019
0.0656686
0.0420002
0.0314182
0.0260428
0.0231323
0.0219199
0.0213405
0.0208286
0.0205062
0.0203268
0.0202275
0.0201884
0.020137
0.0201276
0.020157
0.0202798
0.0204959
0.0208895
0.021416
0.022015
0.0226857
0.0232376
0.0237217
0.0240428
0.0242456
0.0243863
0.0244399
0.0244063
0.0241623
0.023973
0.0237043
0.0230425
0.022359
0.0212482
0.0195993
0.01761
0.0149037
0.0122247
0.0108292
0.0103624
0.0106773
0.0133537
0.0242555
0.0642591
0.161394
0.224321
0.236736
0.225732
0.220922
0.291261
0.32842
0.324424
0.293308
0.222187
0.226116
0.335812
0.442614
0.255937
0.104834
0.0557806
0.040154
0.0348707
0.0329016
0.0321525
0.0318656
0.0325662
0.0351113
0.0408338
0.0489028
0.0536172
0.0576671
0.0595906
0.0605388
0.0608451
0.0605361
0.059009
0.0577016
0.0554219
0.0529337
0.0491785
0.0460176
0.0423272
0.0398076
0.0379992
0.035976
0.0338751
0.031148
0.0277647
0.0242591
0.0213636
0.0192655
0.0179066
0.0171642
0.0171113
0.0182851
0.0204361
0.0221321
0.0238882
0.0264649
0.0293698
0.032127
0.0342781
0.0357045
0.0364279
0.0365439
0.0361392
0.0338669
0.0269884
0.0205456
0.0161404
0.0133888
0.0122974
0.0122438
0.0127406
0.0150746
0.0230024
0.041019
0.0629899
0.077297
0.084266
0.0843793
0.082748
0.0779765
0.0712233
0.0639954
0.0513289
0.0376056
0.0285475
0.0257202
0.0256959
0.0265978
0.0300773
0.0326191
0.0377967
0.0450018
0.0453333
0.0438206
0.0404293
0.0324516
0.0214987
0.0131278
0.00794212
0.0055749
0.00522626
0.00552084
0.00715647
0.0177955
0.0785729
0.179688
0.2157
0.186804
0.0987377
0.0603433
0.0639503
0.0276335
0.0822619
0.109207
0.136881
0.154552
0.168741
0.176684
0.176679
0.173541
0.165143
0.150798
0.133642
0.119543
0.108198
0.0966469
0.0857448
0.0788449
0.0775328
0.106357
0.22596
0.265611
0.272807
0.232459
0.160943
0.122678
0.0687337
0.0399404
0.0294279
0.0251336
0.0233586
0.0226704
0.0224135
0.02242
0.0232493
0.0242327
0.0247454
0.0253469
0.0256321
0.0259526
0.0264033
0.0268206
0.0273779
0.0278394
0.0283609
0.0288297
0.0293141
0.0296348
0.029887
0.0299883
0.0299975
0.0297305
0.0294481
0.0290165
0.0283675
0.0277449
0.0271762
0.0266233
0.0259336
0.0254766
0.0248918
0.0241451
0.0231293
0.021488
0.019057
0.0154538
0.0128901
0.0119137
0.0125089
0.0179265
0.0419525
0.126782
0.218329
0.241696
0.226906
0.21309
0.229509
0.278926
0.287209
0.239607
0.211792
0.245561
0.379974
0.385165
0.147715
0.068203
0.0437518
0.0362324
0.0337706
0.0329393
0.0326544
0.0335033
0.0369441
0.045261
0.0539562
0.0586431
0.063156
0.0653802
0.066369
0.0666948
0.0664988
0.0648458
0.0635976
0.0619551
0.0596503
0.0576051
0.0535768
0.049408
0.0448371
0.0417585
0.0400092
0.0384435
0.0369124
0.035371
0.0338816
0.0316321
0.0278274
0.0234436
0.0199039
0.0174764
0.0161587
0.0156562
0.0158454
0.0175219
0.019386
0.0209696
0.023826
0.0274176
0.030895
0.0333368
0.0344139
0.0345639
0.034161
0.0317294
0.0243187
0.0177825
0.0139381
0.0121465
0.0119171
0.0126579
0.016901
0.0310338
0.0699364
0.112553
0.135476
0.142061
0.141454
0.139841
0.138478
0.136061
0.131512
0.127806
0.122432
0.111526
0.0831432
0.0498102
0.0332893
0.028714
0.0287208
0.0293933
0.0320949
0.0355312
0.0359842
0.035819
0.0349366
0.0313311
0.0222188
0.0141853
0.00907276
0.00633568
0.00521517
0.00516673
0.0062586
0.0168251
0.0823045
0.175223
0.19414
0.152533
0.0858766
0.0599459
0.0629628
0.0296862
0.0866204
0.111351
0.137789
0.15642
0.175857
0.183373
0.183211
0.178568
0.167248
0.148821
0.127653
0.111316
0.0983226
0.0868354
0.0804395
0.0795341
0.0971533
0.192772
0.24331
0.254758
0.228952
0.153842
0.115955
0.0778466
0.0416987
0.0292752
0.0251213
0.0237949
0.0234281
0.0233223
0.0241682
0.0258638
0.026892
0.0273786
0.0277639
0.0282915
0.0286104
0.0291468
0.0297935
0.0306468
0.0315734
0.0325497
0.0336035
0.0345581
0.0354525
0.036131
0.0365538
0.0366954
0.0363966
0.0358223
0.0347975
0.0335392
0.032007
0.0303741
0.0291633
0.0280319
0.0270627
0.0264329
0.0258443
0.0252534
0.0246025
0.0236399
0.0224885
0.020941
0.01885
0.0157327
0.0140398
0.0154092
0.0236036
0.0628366
0.189975
0.247668
0.255718
0.214719
0.20582
0.214402
0.221887
0.213743
0.219297
0.308173
0.37385
0.267668
0.0951688
0.0516691
0.038855
0.0349807
0.0337312
0.0333106
0.0338355
0.0371752
0.0449738
0.0544836
0.0608615
0.0652315
0.068901
0.0704751
0.0711605
0.0713165
0.0704937
0.0686627
0.0675502
0.0654722
0.0642443
0.0627458
0.0597467
0.0544872
0.048317
0.0438168
0.0413073
0.0397936
0.0382896
0.0367511
0.0352918
0.0341862
0.0329533
0.0306876
0.0263286
0.0214911
0.0179193
0.0158371
0.0150054
0.0148503
0.0151826
0.0162832
0.0183103
0.0219327
0.0264689
0.0304643
0.0327553
0.0333841
0.0331847
0.0313199
0.0244772
0.0176173
0.0140873
0.013338
0.0139621
0.0186232
0.0372025
0.0957511
0.14254
0.160471
0.161703
0.156458
0.148183
0.144859
0.143875
0.142355
0.139711
0.137885
0.137387
0.13623
0.132478
0.120294
0.0810339
0.0464705
0.0334055
0.0307045
0.0310988
0.0326171
0.0336139
0.0338661
0.0332595
0.029508
0.0213562
0.0150769
0.0109203
0.00788592
0.00585905
0.00537284
0.00622993
0.0164966
0.0832454
0.167987
0.177057
0.128851
0.0812971
0.0605716
0.0623249
0.0380894
0.086846
0.10781
0.129946
0.157827
0.18424
0.191369
0.191901
0.187023
0.174065
0.151091
0.125699
0.107961
0.0956373
0.0878073
0.086025
0.103102
0.17438
0.221556
0.23512
0.220323
0.146123
0.10804
0.0818572
0.0465505
0.0303916
0.0253794
0.024059
0.0238516
0.0240395
0.0253176
0.0275304
0.028421
0.0288804
0.0291376
0.0298083
0.0305739
0.0316646
0.0330095
0.0347535
0.0369372
0.0394405
0.042323
0.045152
0.0473309
0.049418
0.0505328
0.0510798
0.0512156
0.0503275
0.0490306
0.0466771
0.0439112
0.0405358
0.0370093
0.0339536
0.0309993
0.0290425
0.0275398
0.0264718
0.0257589
0.0251875
0.0243887
0.0234972
0.022359
0.0209866
0.0194253
0.0173238
0.0156435
0.0177603
0.0322076
0.106433
0.241198
0.276901
0.256977
0.210135
0.202622
0.211193
0.21835
0.257915
0.341136
0.353819
0.167878
0.0692628
0.0442777
0.0369792
0.03471
0.0339804
0.0340107
0.0362309
0.0421263
0.0518604
0.0605379
0.0656872
0.0702119
0.0733857
0.074837
0.0754811
0.0756065
0.0744912
0.0723795
0.0705064
0.067951
0.0668288
0.0659238
0.0642896
0.060759
0.0533017
0.0467592
0.0428432
0.0406555
0.0394249
0.0377768
0.0357044
0.034412
0.0336755
0.0329899
0.0319371
0.0288243
0.0232539
0.0187255
0.0159705
0.014768
0.0144275
0.0144391
0.0148743
0.0165587
0.0211999
0.0265158
0.0302245
0.0317418
0.0318517
0.0308241
0.025181
0.0186424
0.0162825
0.0163115
0.0192932
0.0351673
0.0916378
0.14765
0.172109
0.175739
0.171461
0.154016
0.137387
0.127814
0.123694
0.120387
0.118464
0.118637
0.119567
0.122845
0.128109
0.128174
0.123741
0.101501
0.0563329
0.0378434
0.0329884
0.0329686
0.0336249
0.0339116
0.0330735
0.028187
0.0203934
0.0146671
0.0116876
0.00927748
0.00676862
0.00577018
0.00639478
0.0157844
0.0806113
0.160172
0.16377
0.114497
0.080807
0.0618182
0.0624541
0.0495012
0.0812696
0.100743
0.127286
0.162606
0.188064
0.194792
0.195955
0.193827
0.183588
0.161095
0.130826
0.113969
0.106553
0.107566
0.131313
0.175275
0.202943
0.21446
0.203916
0.136783
0.0973455
0.0767859
0.0536138
0.0328433
0.0260145
0.0242239
0.0239316
0.0242955
0.0257996
0.0285472
0.0295917
0.0300296
0.0303466
0.0313436
0.0329309
0.0351378
0.0383341
0.0428662
0.0475298
0.0525007
0.0561387
0.0594956
0.061316
0.0633922
0.0643788
0.0649569
0.0651264
0.0645369
0.0635589
0.0616223
0.0591699
0.0558559
0.0516928
0.0472454
0.0420178
0.0366544
0.0330036
0.0302965
0.0281882
0.0266388
0.0257701
0.0249447
0.0240447
0.0229517
0.0215936
0.0199791
0.0186622
0.0174836
0.0165759
0.0193468
0.0416685
0.153143
0.280207
0.304501
0.26038
0.222523
0.219624
0.244934
0.314759
0.343632
0.304117
0.117318
0.056433
0.0408299
0.0362514
0.0349041
0.0347085
0.0355749
0.0387141
0.04637
0.056202
0.0633699
0.0681684
0.0732376
0.0764808
0.0780056
0.0787011
0.0788618
0.0779174
0.0761054
0.0734041
0.0700872
0.0680778
0.0671804
0.0659975
0.0634783
0.0574396
0.0495098
0.0436821
0.0408529
0.0396948
0.0385306
0.0361258
0.0336647
0.0327596
0.0326311
0.0326953
0.0327224
0.0309784
0.0248895
0.0195412
0.0162815
0.0147516
0.0142854
0.0142753
0.0146495
0.0165145
0.0224042
0.0279288
0.0306291
0.0311059
0.0303872
0.0258168
0.0206493
0.01941
0.0203898
0.0286805
0.067161
0.12886
0.169549
0.185037
0.186105
0.177683
0.155481
0.136735
0.122923
0.113482
0.107331
0.103803
0.102202
0.101702
0.101711
0.10316
0.111923
0.118071
0.115849
0.100914
0.0585683
0.0397433
0.0348823
0.0345248
0.0345597
0.0335472
0.0280974
0.0197568
0.0141735
0.0114664
0.00987677
0.00755872
0.00626875
0.00666464
0.0146886
0.074706
0.152069
0.153846
0.107299
0.0829373
0.0643233
0.0631626
0.0563551
0.0787659
0.09804
0.126997
0.164672
0.189311
0.19583
0.197244
0.196538
0.190848
0.177778
0.159268
0.15156
0.150395
0.158937
0.17457
0.186432
0.193468
0.180145
0.121756
0.0851489
0.0675257
0.0540864
0.0365217
0.0270203
0.024316
0.0238104
0.0241788
0.0256498
0.0289705
0.0303825
0.0309749
0.031555
0.0329949
0.0357074
0.0400059
0.0464399
0.0527197
0.0578497
0.0622279
0.0653502
0.0675733
0.0691609
0.0704403
0.0717434
0.0727077
0.073363
0.0736805
0.0737746
0.0731336
0.071934
0.069951
0.0673283
0.0640208
0.0604363
0.055879
0.0486763
0.0408271
0.0356302
0.0320943
0.0292994
0.0272652
0.0262494
0.0251934
0.0239377
0.0222433
0.0200496
0.0181327
0.017585
0.0171332
0.0166605
0.0201322
0.0516406
0.205544
0.313283
0.330702
0.291169
0.267817
0.310218
0.33361
0.340476
0.248634
0.0917631
0.0503074
0.0394036
0.0362831
0.0353353
0.0352275
0.0363256
0.040438
0.0491473
0.0588986
0.0654365
0.0701495
0.0754957
0.0787056
0.0800656
0.0806188
0.0808047
0.0798689
0.0783459
0.0755677
0.0717439
0.0691967
0.0678294
0.0667013
0.0644368
0.0589532
0.0508622
0.044177
0.0406705
0.0394237
0.0385124
0.0364983
0.0319431
0.0293159
0.0292612
0.0303258
0.0328248
0.0339057
0.0325322
0.0261655
0.0201609
0.0165595
0.0148277
0.0142965
0.0143125
0.0148619
0.0175723
0.0243616
0.0287082
0.0299734
0.029697
0.0264307
0.022277
0.0217813
0.0241205
0.0394224
0.096531
0.153844
0.186802
0.201435
0.205493
0.203724
0.18827
0.162142
0.139339
0.122553
0.112327
0.106902
0.104154
0.102698
0.101469
0.10085
0.101333
0.106354
0.11201
0.11003
0.093756
0.0558264
0.0402933
0.0369658
0.0364206
0.0349371
0.0286076
0.0199107
0.0140076
0.0111449
0.00986013
0.00796789
0.00666146
0.00688178
0.0133398
0.0663216
0.144201
0.147084
0.105617
0.0881596
0.0688387
0.0642261
0.0607997
0.0712586
0.0876943
0.118649
0.156744
0.184585
0.192446
0.194739
0.194818
0.19127
0.183391
0.174895
0.169582
0.168106
0.169893
0.173457
0.171862
0.148819
0.100717
0.0718948
0.0571198
0.0484174
0.0389946
0.0285057
0.0246302
0.0237867
0.0238299
0.0249011
0.0278999
0.0306517
0.031778
0.032722
0.0346536
0.0389559
0.0454711
0.0532179
0.0596523
0.064442
0.0679379
0.0702228
0.0715253
0.0728243
0.0739675
0.075573
0.0769567
0.0782298
0.0789961
0.0792969
0.0791686
0.0782856
0.0769428
0.0751416
0.072678
0.0694254
0.0657512
0.0624409
0.0591559
0.0536671
0.0456351
0.0386762
0.0343735
0.0305597
0.028707
0.0277712
0.0266602
0.0247181
0.0212087
0.0173168
0.0147635
0.0159661
0.0166434
0.016012
0.0202682
0.0621462
0.245714
0.339137
0.35125
0.336289
0.34177
0.348816
0.336908
0.208445
0.0788658
0.0470574
0.0387503
0.0364599
0.035943
0.0360419
0.0374121
0.0421053
0.0503931
0.0592322
0.0652777
0.0698716
0.0751582
0.0786152
0.0801416
0.0813619
0.0815622
0.0807476
0.0790128
0.0761826
0.0727487
0.0702211
0.0684089
0.0670214
0.064671
0.0592816
0.051309
0.044576
0.0399472
0.038023
0.0372967
0.0359886
0.0309082
0.0242029
0.0225756
0.0234644
0.0284502
0.0340342
0.0355625
0.0339103
0.0269285
0.0205215
0.0167198
0.014956
0.0145131
0.0146778
0.0159633
0.0212797
0.0271396
0.0293788
0.0294171
0.0270363
0.0229081
0.0224163
0.0250671
0.0424677
0.107628
0.171334
0.209469
0.233952
0.247099
0.24636
0.227014
0.195017
0.169502
0.149069
0.13397
0.124305
0.118523
0.115007
0.113287
0.110106
0.107075
0.107082
0.109276
0.10968
0.105081
0.0798409
0.0512085
0.0424258
0.0406067
0.0378162
0.029666
0.0203768
0.0141927
0.0109528
0.00972539
0.00806718
0.0068375
0.00693217
0.0118602
0.0560601
0.136019
0.142066
0.106106
0.0926191
0.0754046
0.0660201
0.0645539
0.0680021
0.0774356
0.105106
0.143038
0.176226
0.185746
0.189111
0.189916
0.188694
0.182202
0.174703
0.168884
0.163971
0.158302
0.145808
0.115253
0.081816
0.058308
0.0467596
0.0406639
0.0362468
0.0304579
0.0252309
0.0236445
0.0233585
0.0241259
0.0264091
0.0302257
0.0323608
0.033452
0.0356334
0.0404654
0.0477673
0.056023
0.0628885
0.0675514
0.0709229
0.0727708
0.0740829
0.0753356
0.0772191
0.0795568
0.082122
0.084261
0.0856543
0.0862884
0.0864598
0.0858937
0.0847565
0.0826068
0.0797119
0.0763487
0.0726299
0.0682059
0.0640087
0.060825
0.057272
0.052533
0.0460194
0.0393031
0.0345947
0.0309649
0.0295716
0.0289276
0.028167
0.0258396
0.0191715
0.0136904
0.0109548
0.0146356
0.0157913
0.0146275
0.0195033
0.0741524
0.277509
0.358979
0.367148
0.359537
0.358011
0.331477
0.176788
0.0742144
0.0463755
0.0388726
0.0368496
0.0363685
0.0365036
0.0377643
0.0420124
0.0500157
0.0585692
0.0645331
0.0687614
0.0737962
0.0775987
0.0794081
0.0807381
0.0806706
0.0799593
0.0780956
0.0751598
0.0730277
0.0705934
0.0686204
0.0670975
0.0639755
0.0574949
0.0504042
0.0448029
0.0398945
0.0362913
0.0346684
0.033249
0.0291888
0.0190093
0.0140903
0.0139943
0.0183593
0.0303954
0.0366775
0.0376461
0.0353904
0.0273831
0.0206426
0.0168002
0.0152745
0.0151023
0.0157165
0.0191371
0.025742
0.0289727
0.0293286
0.0276625
0.0231533
0.0224362
0.0246836
0.0401314
0.103683
0.184611
0.235665
0.258975
0.264451
0.260531
0.23475
0.200789
0.175711
0.156468
0.141808
0.131367
0.124558
0.120466
0.118267
0.117446
0.116758
0.115002
0.114114
0.113118
0.110174
0.0974528
0.0657782
0.0496222
0.0449899
0.0413837
0.0320545
0.021554
0.0146728
0.0110224
0.00950353
0.00798359
0.006835
0.00685301
0.0104245
0.0448619
0.126805
0.137606
0.109048
0.0964531
0.0837653
0.0690848
0.0689003
0.0665745
0.0676534
0.0873946
0.117306
0.161563
0.176885
0.181584
0.182719
0.181946
0.175693
0.165572
0.153691
0.135428
0.111628
0.0814887
0.0611869
0.0473603
0.0377424
0.0333118
0.030839
0.0287729
0.025877
0.0236044
0.0230326
0.0233787
0.0250929
0.0285631
0.0321619
0.0338673
0.03563
0.0393652
0.0458095
0.0546645
0.0631794
0.0689441
0.0724749
0.0745089
0.0754179
0.076559