/*--------------------------------*- C++ -*----------------------------------*\
  =========                 |
  \\      /  F ield         | OpenFOAM: The Open Source CFD Toolbox
   \\    /   O peration     | Website:  https://openfoam.org
    \\  /    A nd           | Version:  6
     \\/     M anipulation  |
\*---------------------------------------------------------------------------*/
FoamFile
{
    version     2.0;
    format      ascii;
    class       surfaceScalarField;
    location    "0.35";
    object      phi;
}
// * * * * * * * * * * * * * * * * * * * * * * * * * * * * * * * * * * * * * //

dimensions      [0 3 -1 0 0 0 0];

internalField   nonuniform List<scalar> 
24170
(
3.04841e-06
8.50598e-08
2.96645e-06
8.19533e-08
2.89676e-06
6.96935e-08
2.80781e-06
8.89503e-08
2.70001e-06
1.07793e-07
2.59125e-06
1.08768e-07
2.4985e-06
9.27462e-08
2.42416e-06
7.43414e-08
2.35605e-06
6.81101e-08
2.27703e-06
7.90182e-08
2.17781e-06
9.92177e-08
2.06249e-06
1.15319e-07
1.94079e-06
1.217e-07
1.82048e-06
1.20313e-07
1.70196e-06
1.1852e-07
1.57814e-06
1.23822e-07
1.43991e-06
1.38232e-07
1.69744e-07
1.27016e-06
3.41413e-06
3.26947e-08
3.40796e-06
8.81258e-08
3.41772e-06
5.99342e-08
3.44475e-06
6.19198e-08
3.45395e-06
9.85928e-08
3.43462e-06
1.28095e-07
3.40132e-06
1.26056e-07
3.37051e-06
1.05151e-07
3.34984e-06
8.8777e-08
3.33821e-06
9.06474e-08
3.32916e-06
1.0827e-07
3.31491e-06
1.29566e-07
3.28996e-06
1.4665e-07
3.2512e-06
1.59075e-07
3.19814e-06
1.71578e-07
3.13086e-06
1.91103e-07
3.05084e-06
2.18249e-07
2.55515e-07
2.96507e-06
3.65423e-06
2.64983e-08
3.63868e-06
1.03671e-07
3.60928e-06
8.93413e-08
3.60052e-06
7.06748e-08
3.6198e-06
7.93142e-08
3.65077e-06
9.71263e-08
3.67257e-06
1.04259e-07
3.67476e-06
1.0296e-07
3.66088e-06
1.02658e-07
3.64342e-06
1.081e-07
3.63296e-06
1.18729e-07
3.63154e-06
1.3099e-07
3.63412e-06
1.44071e-07
3.63375e-06
1.59442e-07
3.6255e-06
1.7983e-07
3.60858e-06
2.08023e-07
3.58584e-06
2.40994e-07
2.74856e-07
3.56649e-06
3.96117e-06
4.68201e-08
3.957e-06
1.07831e-07
3.93243e-06
1.13918e-07
3.89058e-06
1.12524e-07
3.86488e-06
1.05016e-07
3.86475e-06
9.72495e-08
3.87614e-06
9.28767e-08
3.88395e-06
9.51437e-08
3.88396e-06
1.02655e-07
3.88127e-06
1.10784e-07
3.88269e-06
1.17309e-07
3.89093e-06
1.22752e-07
3.90411e-06
1.30895e-07
3.91745e-06
1.46096e-07
3.92651e-06
1.70775e-07
3.92954e-06
2.04987e-07
3.9274e-06
2.43135e-07
2.78988e-07
3.92327e-06
4.2035e-06
6.68846e-08
4.20643e-06
1.04904e-07
4.20858e-06
1.11768e-07
4.193e-06
1.28108e-07
4.16971e-06
1.28302e-07
4.15342e-06
1.13546e-07
4.14924e-06
9.70504e-08
4.15234e-06
9.20431e-08
4.15546e-06
9.95369e-08
4.15573e-06
1.1051e-07
4.15535e-06
1.17695e-07
4.15783e-06
1.20275e-07
4.16508e-06
1.23639e-07
4.17597e-06
1.35203e-07
4.18785e-06
1.58903e-07
4.19852e-06
1.94313e-07
4.20603e-06
2.35624e-07
2.7565e-07
4.20937e-06
4.58976e-06
7.34414e-08
4.54955e-06
1.45116e-07
4.54835e-06
1.12973e-07
4.5654e-06
1.11054e-07
4.5755e-06
1.18201e-07
4.56635e-06
1.22694e-07
4.54038e-06
1.23021e-07
4.50855e-06
1.23874e-07
4.47994e-06
1.28152e-07
4.45767e-06
1.32774e-07
4.44176e-06
1.33602e-07
4.43189e-06
1.30153e-07
4.42816e-06
1.27366e-07
4.43004e-06
1.33324e-07
4.4358e-06
1.53142e-07
4.44321e-06
1.86906e-07
4.44947e-06
2.29363e-07
2.73702e-07
4.45142e-06
4.77674e-06
1.58335e-07
4.81142e-06
1.10428e-07
4.86561e-06
5.87857e-08
4.88617e-06
9.04981e-08
4.88138e-06
1.22987e-07
4.86337e-06
1.40706e-07
4.8356e-06
1.50791e-07
4.80012e-06
1.59351e-07
4.76161e-06
1.66667e-07
4.72612e-06
1.68261e-07
4.69849e-06
1.61239e-07
4.68076e-06
1.4788e-07
4.6726e-06
1.35524e-07
4.67299e-06
1.32934e-07
4.68053e-06
1.45598e-07
4.69372e-06
1.73721e-07
4.71056e-06
2.12517e-07
2.56802e-07
4.72746e-06
5.24191e-06
7.76567e-08
5.26458e-06
8.77629e-08
5.23573e-06
8.76289e-08
5.19079e-06
1.35438e-07
5.15386e-06
1.59922e-07
5.14153e-06
1.53033e-07
5.15503e-06
1.37294e-07
5.18311e-06
1.31265e-07
5.21137e-06
1.38412e-07
5.22897e-06
1.50657e-07
5.23059e-06
1.59619e-07
5.21502e-06
1.63451e-07
5.18461e-06
1.65936e-07
5.145e-06
1.72548e-07
5.10435e-06
1.86243e-07
5.07011e-06
2.07966e-07
5.04701e-06
2.35617e-07
2.67372e-07
5.03644e-06
5.63779e-06
-3.40392e-08
5.60515e-06
1.204e-07
5.548e-06
1.44787e-07
5.54364e-06
1.39791e-07
5.56364e-06
1.39929e-07
5.57998e-06
1.36691e-07
5.5925e-06
1.24772e-07
5.61278e-06
1.10989e-07
5.64386e-06
1.07331e-07
5.67579e-06
1.18728e-07
5.69428e-06
1.41126e-07
5.69027e-06
1.67464e-07
5.66382e-06
1.92381e-07
5.62208e-06
2.14293e-07
5.57448e-06
2.33843e-07
5.52896e-06
2.53486e-07
5.49011e-06
2.74468e-07
2.98369e-07
5.45911e-06
6.04395e-06
1.31263e-08
6.01262e-06
1.51733e-07
6.00638e-06
1.51021e-07
6.02766e-06
1.18518e-07
6.06663e-06
1.00952e-07
6.09413e-06
1.09194e-07
6.08919e-06
1.29713e-07
6.05376e-06
1.46423e-07
6.00423e-06
1.56854e-07
5.95626e-06
1.66705e-07
5.9169e-06
1.80486e-07
5.88636e-06
1.98e-07
5.86269e-06
2.16049e-07
5.8449e-06
2.32083e-07
5.83297e-06
2.45775e-07
5.82691e-06
2.59542e-07
5.82629e-06
2.75094e-07
2.95356e-07
5.8293e-06
6.44213e-06
-1.94367e-08
6.53274e-06
6.11229e-08
6.52399e-06
1.59771e-07
6.44757e-06
1.94937e-07
6.37203e-06
1.76492e-07
6.33341e-06
1.47819e-07
6.33385e-06
1.29272e-07
6.3576e-06
1.22666e-07
6.38546e-06
1.28992e-07
6.40313e-06
1.49038e-07
6.40475e-06
1.78873e-07
6.39139e-06
2.11358e-07
6.36805e-06
2.39386e-07
6.34015e-06
2.59986e-07
6.31242e-06
2.73502e-07
6.28825e-06
2.83715e-07
6.26973e-06
2.93611e-07
3.06634e-07
6.25845e-06
5.76781e-06
1.27328e-07
5.75858e-06
7.03557e-08
5.78146e-06
1.36883e-07
5.78622e-06
1.90179e-07
5.77538e-06
1.87332e-07
5.7633e-06
1.59901e-07
5.7581e-06
1.34474e-07
5.76261e-06
1.18153e-07
5.77544e-06
1.16164e-07
5.79046e-06
1.34022e-07
5.79977e-06
1.6956e-07
5.79791e-06
2.13212e-07
5.7842e-06
2.53102e-07
5.7616e-06
2.82582e-07
5.73458e-06
3.00526e-07
5.70691e-06
3.11381e-07
5.68083e-06
3.19696e-07
3.29071e-07
5.65839e-06
6.99705e-06
6.69015e-09
6.95755e-06
1.09852e-07
6.93661e-06
1.5783e-07
6.96609e-06
1.60699e-07
6.99164e-06
1.61779e-07
6.99065e-06
1.60894e-07
6.9737e-06
1.5142e-07
6.95698e-06
1.34877e-07
6.95129e-06
1.21849e-07
6.96029e-06
1.25021e-07
6.97989e-06
1.49965e-07
7.00115e-06
1.91953e-07
7.01424e-06
2.40009e-07
7.01311e-06
2.83709e-07
6.99779e-06
3.15851e-07
6.97291e-06
3.36256e-07
6.94608e-06
3.46522e-07
3.5263e-07
6.92253e-06
8.46018e-06
-9.1233e-08
8.49891e-06
7.11222e-08
8.48791e-06
1.68832e-07
8.47119e-06
1.77415e-07
8.49658e-06
1.36395e-07
8.57214e-06
8.53303e-08
8.66131e-06
6.22542e-08
8.72206e-06
7.41191e-08
8.7369e-06
1.07009e-07
8.71512e-06
1.46805e-07
8.67794e-06
1.87146e-07
8.64325e-06
2.2664e-07
8.61848e-06
2.64779e-07
8.60296e-06
2.99235e-07
8.5931e-06
3.25712e-07
8.58635e-06
3.43e-07
8.58237e-06
3.50501e-07
3.54193e-07
8.58081e-06
1.03217e-05
1.67608e-07
1.02852e-05
1.0759e-07
1.04057e-05
4.83603e-08
1.05026e-05
8.05277e-08
1.0506e-05
1.32899e-07
1.04472e-05
1.44174e-07
1.03936e-05
1.15879e-07
1.03842e-05
8.34597e-08
1.04161e-05
7.51598e-08
1.04647e-05
9.82407e-08
1.05069e-05
1.44849e-07
1.05315e-05
2.02076e-07
1.05384e-05
2.57938e-07
1.05334e-05
3.04157e-07
1.05238e-05
3.35381e-07
1.0515e-05
3.51738e-07
1.05095e-05
3.55999e-07
3.51189e-07
1.05125e-05
1.26471e-05
-2.84054e-07
1.28233e-05
-6.86031e-08
1.28405e-05
3.11699e-08
1.28343e-05
8.67164e-08
1.28445e-05
1.22706e-07
1.28534e-05
1.35314e-07
1.28436e-05
1.25627e-07
1.28202e-05
1.06827e-07
1.27984e-05
9.70237e-08
1.279e-05
1.06603e-07
1.2801e-05
1.33839e-07
1.28318e-05
1.71266e-07
1.28789e-05
2.10871e-07
1.29352e-05
2.4785e-07
1.29906e-05
2.79984e-07
1.30359e-05
3.06433e-07
1.30636e-05
3.28328e-07
3.48795e-07
1.3066e-05
1.54292e-05
6.77515e-08
1.55161e-05
-1.55507e-07
1.56335e-05
-8.62644e-08
1.5702e-05
1.81817e-08
1.57674e-05
5.73614e-08
1.58471e-05
5.5566e-08
1.59187e-05
5.40576e-08
1.59456e-05
7.99463e-08
1.59112e-05
1.31452e-07
1.58309e-05
1.86898e-07
1.57375e-05
2.27231e-07
1.56601e-05
2.48667e-07
1.56129e-05
2.58038e-07
1.5596e-05
2.64711e-07
1.5602e-05
2.73995e-07
1.56209e-05
2.87572e-07
1.56454e-05
3.03833e-07
3.17164e-07
1.5677e-05
1.91675e-05
1.12997e-07
1.89101e-05
1.01884e-07
1.87318e-05
9.20479e-08
1.86973e-05
5.26417e-08
1.87671e-05
-1.23719e-08
1.88789e-05
-5.6298e-08
1.89905e-05
-5.75079e-08
1.90851e-05
-1.46241e-08
1.91598e-05
5.676e-08
1.92127e-05
1.33975e-07
1.92402e-05
1.99739e-07
1.92421e-05
2.46742e-07
1.92251e-05
2.75003e-07
1.92015e-05
2.88395e-07
1.91848e-05
2.90676e-07
1.91849e-05
2.87405e-07
1.92082e-05
2.80599e-07
2.79298e-07
1.9246e-05
2.30334e-05
-1.5935e-07
2.32418e-05
-1.06525e-07
2.34287e-05
-9.49105e-08
2.35638e-05
-8.24669e-08
2.35955e-05
-4.40258e-08
2.35392e-05
3.68559e-11
2.34558e-05
2.58481e-08
2.34013e-05
3.9882e-08
2.33935e-05
6.45607e-08
2.34146e-05
1.12862e-07
2.34365e-05
1.77828e-07
2.34432e-05
2.40096e-07
2.34362e-05
2.81954e-07
2.3429e-05
2.95604e-07
2.34364e-05
2.83311e-07
2.34674e-05
2.56363e-07
2.35237e-05
2.24344e-07
1.9801e-07
2.3605e-05
1.7071e-05
-2.56592e-07
1.7079e-05
-1.14546e-07
1.7068e-05
-8.39263e-08
1.707e-05
-8.44242e-08
1.70747e-05
-4.87638e-08
1.70729e-05
1.89846e-09
1.70606e-05
3.80875e-08
1.70455e-05
5.50437e-08
1.70432e-05
6.68622e-08
1.70689e-05
8.71432e-08
1.71282e-05
1.18544e-07
1.72137e-05
1.54554e-07
1.73099e-05
1.85791e-07
1.73996e-05
2.0585e-07
1.74703e-05
2.12648e-07
1.7517e-05
2.09684e-07
1.75405e-05
2.00829e-07
1.91793e-07
1.75467e-05
1.50779e-05
1.22446e-07
1.49218e-05
4.1493e-08
1.48667e-05
-2.8755e-08
1.48169e-05
-3.46775e-08
1.478e-05
-1.18124e-08
1.47636e-05
1.82496e-08
1.47538e-05
4.79217e-08
1.47399e-05
6.88823e-08
1.47292e-05
7.75449e-08
1.47369e-05
7.95365e-08
1.47716e-05
8.38133e-08
1.48305e-05
9.56704e-08
1.49021e-05
1.14146e-07
1.49733e-05
1.34641e-07
1.50338e-05
1.52186e-07
1.50789e-05
1.64571e-07
1.51085e-05
1.71204e-07
1.74984e-07
1.51253e-05
1.28174e-05
-2.37443e-08
1.28145e-05
4.43664e-08
1.27856e-05
1.87394e-10
1.27792e-05
-2.82973e-08
1.27934e-05
-2.60215e-08
1.28275e-05
-1.58678e-08
1.28805e-05
-5.02606e-09
1.29392e-05
1.01776e-08
1.29852e-05
3.15149e-08
1.30092e-05
5.55239e-08
1.3016e-05
7.7036e-08
1.30185e-05
9.31875e-08
1.30285e-05
1.04116e-07
1.30517e-05
1.11444e-07
1.30866e-05
1.17305e-07
1.31277e-05
1.23443e-07
1.31686e-05
1.30315e-07
1.37334e-07
1.32063e-05
1.1388e-05
7.55258e-08
1.12798e-05
1.52578e-07
1.12248e-05
5.51867e-08
1.12007e-05
-4.2299e-09
1.12018e-05
-2.70952e-08
1.12372e-05
-5.12924e-08
1.12952e-05
-6.30088e-08
1.13527e-05
-4.73402e-08
1.13916e-05
-7.37957e-09
1.14048e-05
4.232e-08
1.13971e-05
8.47636e-08
1.13818e-05
1.08505e-07
1.13733e-05
1.12547e-07
1.13813e-05
1.03446e-07
1.14076e-05
9.10626e-08
1.1448e-05
8.30383e-08
1.1496e-05
8.22602e-08
9.04451e-08
1.15429e-05
9.71973e-06
-7.57505e-08
9.79505e-06
7.72612e-08
9.76133e-06
8.89048e-08
9.74046e-06
1.66422e-08
9.76838e-06
-5.50182e-08
9.81734e-06
-1.00248e-07
9.8538e-06
-9.94719e-08
9.86133e-06
-5.48685e-08
9.84377e-06
1.01809e-08
9.81813e-06
6.7961e-08
9.80258e-06
1.00312e-07
9.80821e-06
1.02875e-07
9.83723e-06
8.35309e-08
9.88605e-06
5.46256e-08
9.94861e-06
2.85018e-08
1.00184e-05
1.32792e-08
1.00896e-05
1.10025e-08
2.27611e-08
1.01573e-05
8.41389e-06
-2.99991e-08
8.36409e-06
1.27053e-07
8.33825e-06
1.1475e-07
8.34076e-06
1.41275e-08
8.35585e-06
-7.01023e-08
8.35812e-06
-1.02521e-07
8.34638e-06
-8.77277e-08
8.33855e-06
-4.70397e-08
8.35294e-06
-4.21535e-09
8.39634e-06
2.45614e-08
8.46202e-06
3.46292e-08
8.53453e-06
3.0367e-08
8.59791e-06
2.01546e-08
8.64178e-06
1.07501e-08
8.66492e-06
5.36681e-09
8.67303e-06
5.16525e-09
8.67462e-06
9.41696e-09
1.75765e-08
8.6798e-06
7.25746e-06
-2.46592e-08
7.30673e-06
7.77801e-08
7.36667e-06
5.48111e-08
7.38322e-06
-2.41697e-09
7.35093e-06
-3.78174e-08
7.29641e-06
-4.80023e-08
7.25577e-06
-4.70814e-08
7.25049e-06
-4.17611e-08
7.28057e-06
-3.4293e-08
7.33213e-06
-2.70067e-08
7.38829e-06
-2.15299e-08
7.43664e-06
-1.79766e-08
7.4721e-06
-1.53087e-08
7.49565e-06
-1.2796e-08
7.51141e-06
-1.03995e-08
7.52418e-06
-7.59833e-09
7.53801e-06
-4.41986e-09
2.43044e-09
7.55316e-06
6.45762e-06
1.71151e-07
6.40762e-06
1.27781e-07
6.38155e-06
8.0881e-08
6.36137e-06
1.77584e-08
6.35211e-06
-2.85545e-08
6.36066e-06
-5.65535e-08
6.39591e-06
-8.23247e-08
6.45563e-06
-1.01486e-07
6.52397e-06
-1.02632e-07
6.57994e-06
-8.29771e-08
6.60867e-06
-5.02641e-08
6.60854e-06
-1.78412e-08
6.58991e-06
3.32276e-09
6.56775e-06
9.35644e-09
6.55398e-06
3.37409e-09
6.55412e-06
-7.73614e-09
6.56787e-06
-1.81752e-08
-2.34844e-08
6.59379e-06
5.45933e-06
1.24469e-07
5.62692e-06
-3.98065e-08
5.72958e-06
-2.17803e-08
5.73718e-06
1.01588e-08
5.70034e-06
8.29e-09
5.66301e-06
-1.923e-08
5.63641e-06
-5.57241e-08
5.61694e-06
-8.20119e-08
5.60376e-06
-8.94554e-08
5.6013e-06
-8.05176e-08
5.61405e-06
-6.30167e-08
5.64205e-06
-4.58368e-08
5.6802e-06
-3.4822e-08
5.72036e-06
-3.08075e-08
5.75455e-06
-3.08179e-08
5.77801e-06
-3.11987e-08
5.78982e-06
-2.99831e-08
-2.62164e-08
5.79255e-06
4.81571e-06
1.06827e-07
4.82782e-06
-5.19084e-08
4.86658e-06
-6.0549e-08
4.92565e-06
-4.89088e-08
4.97891e-06
-4.49736e-08
5.01131e-06
-5.1623e-08
5.02033e-06
-6.47478e-08
5.01209e-06
-7.37743e-08
4.99533e-06
-7.26872e-08
4.97797e-06
-6.31644e-08
4.96592e-06
-5.09613e-08
4.96158e-06
-4.1503e-08
4.96363e-06
-3.68675e-08
4.96851e-06
-3.56889e-08
4.97276e-06
-3.5072e-08
4.97466e-06
-3.30896e-08
4.9737e-06
-2.90283e-08
-2.38594e-08
4.97134e-06
4.12943e-06
4.07752e-06
4.01697e-06
3.96806e-06
3.92309e-06
3.87147e-06
3.80672e-06
3.73295e-06
3.66026e-06
3.59709e-06
3.54613e-06
3.50463e-06
3.46776e-06
3.43207e-06
3.397e-06
3.36391e-06
3.33488e-06
3.31102e-06
-1.98602e-07
1.98602e-07
1.19097e-07
-3.17699e-07
7.72788e-07
-6.5369e-07
1.50552e-06
-7.32737e-07
2.19719e-06
-6.91666e-07
2.80869e-06
-6.11501e-07
3.33009e-06
-5.21394e-07
3.75657e-06
-4.26488e-07
4.08244e-06
-3.25865e-07
4.30007e-06
-2.17627e-07
4.39804e-06
-9.79685e-08
4.37005e-06
2.79893e-08
4.21014e-06
1.59908e-07
3.90682e-06
3.03319e-07
3.48414e-06
4.22677e-07
2.9451e-06
5.39044e-07
2.2639e-06
6.81201e-07
1.56777e-06
6.96131e-07
9.86611e-07
5.81155e-07
5.68384e-07
4.18227e-07
3.46549e-07
2.21835e-07
1.54984e-07
1.91565e-07
-7.20962e-08
2.2708e-07
-1.4006e-07
6.79634e-08
9.84452e-08
-2.38505e-07
4.04504e-07
-3.06059e-07
4.56456e-07
-5.19525e-08
3.523e-07
1.04156e-07
-1.10323e-07
4.62624e-07
-7.09535e-07
5.99212e-07
-1.37696e-06
6.6742e-07
-2.10841e-06
7.31456e-07
-2.85129e-06
7.42882e-07
-3.58492e-06
7.33625e-07
-4.28115e-06
6.96234e-07
-4.93325e-06
6.52098e-07
-5.53408e-06
6.00829e-07
-6.08417e-06
5.50088e-07
-6.58574e-06
5.01573e-07
-7.04386e-06
4.58118e-07
-7.4636e-06
4.19741e-07
-7.84969e-06
3.86097e-07
-8.20557e-06
3.55871e-07
-8.53333e-06
3.27765e-07
-8.83335e-06
3.00014e-07
-9.10452e-06
2.71174e-07
-9.34427e-06
2.39752e-07
-9.549e-06
2.04728e-07
-9.71451e-06
1.65506e-07
-9.83641e-06
1.21902e-07
-9.91047e-06
7.40663e-08
-9.93353e-06
2.30592e-08
-9.90439e-06
-2.91469e-08
-9.82282e-06
-8.1561e-08
-9.68869e-06
-1.34136e-07
-9.50211e-06
-1.86575e-07
-9.26365e-06
-2.38467e-07
-8.97437e-06
-2.89277e-07
-8.63574e-06
-3.38631e-07
-8.24941e-06
-3.86323e-07
-7.817e-06
-4.32417e-07
-7.33969e-06
-4.77304e-07
-6.8179e-06
-5.21789e-07
-6.25077e-06
-5.67131e-07
-5.63582e-06
-6.14956e-07
-4.96863e-06
-6.67184e-07
-4.24251e-06
-7.26123e-07
-3.44825e-06
-7.94261e-07
-2.57479e-06
-8.73462e-07
-1.61007e-06
-9.6472e-07
-5.43109e-07
-1.06696e-06
6.32783e-07
-1.17589e-06
1.88772e-06
-1.25493e-06
3.1601e-06
-1.27239e-06
4.30377e-06
-1.14367e-06
5.15834e-06
-8.54567e-07
5.63822e-06
-4.79877e-07
5.73388e-06
-9.5664e-08
5.42308e-06
3.10803e-07
4.68784e-06
7.3524e-07
3.65089e-06
1.03695e-06
2.31399e-06
1.3369e-06
1.05391e-06
1.26008e-06
4.32963e-07
6.20944e-07
3.75657e-07
5.73061e-08
7.49995e-07
-3.74338e-07
1.22469e-06
-4.74694e-07
1.25454e-06
-2.98561e-08
3.14988e-07
9.39556e-07
-1.73036e-06
2.04535e-06
-3.93259e-06
2.20223e-06
-5.88625e-06
1.95366e-06
-7.5404e-06
1.65415e-06
-8.90915e-06
1.36875e-06
-1.00375e-05
1.12837e-06
-1.09684e-05
9.30864e-07
-1.17317e-05
7.63367e-07
-1.23446e-05
6.12903e-07
-1.28145e-05
4.6987e-07
-1.31436e-05
3.29124e-07
-1.33329e-05
1.89283e-07
-1.33852e-05
5.23058e-08
-1.33088e-05
-7.64679e-08
-1.31128e-05
-1.95952e-07
-1.28048e-05
-3.08025e-07
-1.23929e-05
-4.11921e-07
-1.18871e-05
-5.05789e-07
-1.12992e-05
-5.87869e-07
-1.06425e-05
-6.56752e-07
-9.93093e-06
-7.11525e-07
-9.17921e-06
-7.51719e-07
-8.4023e-06
-7.7691e-07
-7.6151e-06
-7.87205e-07
-6.83202e-06
-7.83081e-07
-6.06613e-06
-7.65882e-07
-5.3286e-06
-7.37538e-07
-4.6282e-06
-7.004e-07
-3.97137e-06
-6.5683e-07
-3.36204e-06
-6.09326e-07
-2.8011e-06
-5.60936e-07
-2.28574e-06
-5.15365e-07
-1.80919e-06
-4.76544e-07
-1.36144e-06
-4.47751e-07
-9.31439e-07
-4.30004e-07
-5.07324e-07
-4.24115e-07
-7.61305e-08
-4.31194e-07
3.73922e-07
-4.50052e-07
8.50836e-07
-4.76914e-07
1.35249e-06
-5.01654e-07
1.8637e-06
-5.11214e-07
2.36301e-06
-4.99307e-07
2.83183e-06
-4.68821e-07
3.2592e-06
-4.27368e-07
3.64058e-06
-3.8138e-07
3.97431e-06
-3.33726e-07
4.25896e-06
-2.84654e-07
4.4943e-06
-2.35341e-07
4.68488e-06
-1.90579e-07
4.83986e-06
-1.54982e-07
4.97232e-06
-1.32453e-07
5.09907e-06
-1.26756e-07
5.23405e-06
-1.34978e-07
5.38986e-06
-1.55815e-07
5.57481e-06
-1.84943e-07
5.78257e-06
-2.07766e-07
6.00533e-06
-2.22759e-07
6.22561e-06
-2.2028e-07
6.43209e-06
-2.06481e-07
6.61414e-06
-1.82044e-07
6.73267e-06
-1.18529e-07
6.80969e-06
-7.70255e-08
6.77025e-06
3.94382e-08
6.5708e-06
1.99452e-07
6.3431e-06
2.27698e-07
5.54313e-06
7.99979e-07
3.80027e-06
1.74286e-06
1.92662e-06
1.87365e-06
7.52683e-07
1.17394e-06
5.37077e-07
2.15606e-07
5.1774e-07
1.93368e-08
1.02188e-07
4.15552e-07
-4.36452e-07
5.3864e-07
-7.25801e-07
2.89348e-07
-6.31798e-07
-9.40021e-08
-2.62318e-07
-3.69481e-07
1.89834e-07
-4.52152e-07
5.82514e-07
-3.9268e-07
8.64736e-07
-2.82222e-07
1.05342e-06
-1.88685e-07
1.17809e-06
-1.24667e-07
1.25765e-06
-7.95658e-08
1.32596e-06
-6.83033e-08
1.46756e-06
-1.41604e-07
1.78546e-06
-3.17901e-07
2.27142e-06
-4.85962e-07
2.72612e-06
-4.54698e-07
2.91481e-06
-1.88685e-07
2.82444e-06
9.0369e-08
2.58124e-06
2.43194e-07
4.2061e-07
2.16063e-06
3.535e-07
-1.54898e-07
1.05928e-06
-1.02348e-06
1.7201e-06
-1.31451e-06
2.28183e-06
-1.29447e-06
2.76098e-06
-1.17082e-06
3.17499e-06
-1.02551e-06
3.53233e-06
-8.78736e-07
3.83377e-06
-7.27926e-07
4.07333e-06
-5.65427e-07
4.24394e-06
-3.88236e-07
4.34125e-06
-1.95272e-07
4.35999e-06
9.24884e-09
4.29877e-06
2.21127e-07
4.15434e-06
4.47749e-07
3.91005e-06
6.66966e-07
3.57648e-06
8.72617e-07
3.18858e-06
1.0691e-06
2.68663e-06
1.19808e-06
2.04538e-06
1.2224e-06
1.44706e-06
1.01655e-06
1.00141e-06
6.6748e-07
6.46326e-07
5.46653e-07
4.73375e-07
4.00031e-07
5.84534e-07
-4.31959e-08
3.60322e-07
-1.42922e-08
-3.20154e-07
3.74417e-07
-1.23111e-06
8.59002e-07
-2.10349e-06
9.76534e-07
-2.79013e-06
1.14927e-06
-3.45992e-06
1.269e-06
-4.11951e-06
1.32701e-06
-4.72864e-06
1.34059e-06
-5.30512e-06
1.31936e-06
-5.84478e-06
1.27328e-06
-6.35333e-06
1.20479e-06
-6.82707e-06
1.12583e-06
-7.2681e-06
1.04186e-06
-7.67902e-06
9.61002e-07
-8.06273e-06
8.85285e-07
-8.42192e-06
8.17304e-07
-8.75835e-06
7.56169e-07
-9.07297e-06
7.00725e-07
-9.36532e-06
6.48222e-07
-9.63343e-06
5.95868e-07
-9.87414e-06
5.40729e-07
-1.00835e-05
4.80555e-07
-1.02575e-05
4.13746e-07
-1.03924e-05
3.39628e-07
-1.04852e-05
2.58297e-07
-1.05338e-05
1.70544e-07
-1.05374e-05
7.76198e-08
-1.04953e-05
-1.90831e-08
-1.04057e-05
-1.18753e-07
-1.02668e-05
-2.20367e-07
-1.00784e-05
-3.22625e-07
-9.84051e-06
-4.24423e-07
-9.5542e-06
-5.24778e-07
-9.22062e-06
-6.22857e-07
-8.84126e-06
-7.17988e-07
-8.41779e-06
-8.09802e-07
-7.95183e-06
-8.98376e-07
-7.4447e-06
-9.84431e-07
-6.8969e-06
-1.06959e-06
-6.30747e-06
-1.15656e-06
-5.67337e-06
-1.24905e-06
-4.98929e-06
-1.35127e-06
-4.24804e-06
-1.46737e-06
-3.44082e-06
-1.60148e-06
-2.55609e-06
-1.7582e-06
-1.57959e-06
-1.94122e-06
-5.00396e-07
-2.14615e-06
6.80948e-07
-2.35724e-06
1.9381e-06
-2.51208e-06
3.18224e-06
-2.51653e-06
4.22181e-06
-2.18324e-06
4.94941e-06
-1.58217e-06
5.37291e-06
-9.03377e-07
5.49678e-06
-2.19531e-07
5.37476e-06
4.32816e-07
5.00438e-06
1.10562e-06
4.41957e-06
1.62176e-06
3.64229e-06
2.11418e-06
2.73152e-06
2.17085e-06
1.67093e-06
1.68153e-06
1.45968e-06
2.6856e-07
1.53544e-06
-4.50096e-07
4.12565e-07
6.48177e-07
-1.95535e-06
2.33806e-06
-4.34746e-06
3.33167e-06
-6.04415e-06
3.74204e-06
-7.33693e-06
3.495e-06
-8.42424e-06
3.04098e-06
-9.32872e-06
2.55863e-06
-1.01003e-05
2.1403e-06
-1.07673e-05
1.79542e-06
-1.13454e-05
1.50889e-06
-1.18381e-05
1.25616e-06
-1.2243e-05
1.01775e-06
-1.25551e-05
7.81944e-07
-1.27696e-05
5.43623e-07
-1.28834e-05
3.03084e-07
-1.28933e-05
6.22336e-08
-1.27926e-05
-1.77182e-07
-1.25773e-05
-4.11258e-07
-1.22512e-05
-6.34134e-07
-1.1822e-05
-8.41095e-07
-1.12999e-05
-1.02785e-06
-1.06972e-05
-1.19064e-06
-1.00273e-05
-1.32665e-06
-9.30466e-06
-1.43413e-06
-8.54442e-06
-1.51196e-06
-7.76189e-06
-1.55944e-06
-6.97275e-06
-1.57635e-06
-6.19217e-06
-1.56366e-06
-5.43407e-06
-1.52398e-06
-4.71005e-06
-1.46156e-06
-4.0288e-06
-1.38165e-06
-3.39592e-06
-1.28972e-06
-2.81413e-06
-1.19112e-06
-2.28332e-06
-1.09175e-06
-1.80004e-06
-9.98642e-07
-1.35762e-06
-9.18964e-07
-9.46967e-07
-8.58402e-07
-5.56676e-07
-8.20295e-07
-1.73234e-07
-8.07556e-07
2.19524e-07
-8.23952e-07
6.38567e-07
-8.69096e-07
1.09532e-06
-9.33667e-07
1.58906e-06
-9.95392e-07
2.10412e-06
-1.02628e-06
2.61632e-06
-1.01151e-06
3.10494e-06
-9.57434e-07
3.5594e-06
-8.81834e-07
3.97756e-06
-7.99535e-07
4.35976e-06
-7.15927e-07
4.70505e-06
-6.2995e-07
5.01086e-06
-5.41148e-07
5.2749e-06
-4.54615e-07
5.499e-06
-3.79083e-07
5.69025e-06
-3.23709e-07
5.86092e-06
-2.97423e-07
6.02824e-06
-3.02292e-07
6.20726e-06
-3.34842e-07
6.40848e-06
-3.86161e-07
6.6338e-06
-4.33089e-07
6.87547e-06
-4.64427e-07
7.12559e-06
-4.70397e-07
7.36048e-06
-4.41373e-07
7.56614e-06
-3.87704e-07
7.71986e-06
-2.72253e-07
7.79931e-06
-1.56468e-07
7.85627e-06
-1.75291e-08
7.78298e-06
2.72749e-07
7.56352e-06
4.47157e-07
7.46607e-06
8.9743e-07
7.26571e-06
1.94322e-06
6.51408e-06
2.62527e-06
5.08561e-06
2.60241e-06
3.27329e-06
2.02793e-06
1.90811e-06
1.38451e-06
1.26518e-06
1.05848e-06
9.12466e-07
8.91355e-07
7.40194e-07
4.61619e-07
8.36303e-07
-1.90111e-07
1.14152e-06
-6.74701e-07
1.50261e-06
-8.13237e-07
1.78373e-06
-6.738e-07
1.93484e-06
-4.33335e-07
2.01814e-06
-2.71987e-07
2.12657e-06
-2.33088e-07
2.25863e-06
-2.11626e-07
2.34315e-06
-1.52826e-07
2.38698e-06
-1.8544e-07
2.51857e-06
-4.49488e-07
2.84126e-06
-8.08648e-07
3.28747e-06
-9.00908e-07
3.61003e-06
-5.11245e-07
3.50635e-06
1.94048e-07
2.87185e-06
8.7769e-07
1.40487e-06
1.88759e-06
7.58727e-07
-9.13625e-07
1.40372e-06
-1.66847e-06
1.78763e-06
-1.69842e-06
2.05227e-06
-1.55911e-06
2.29005e-06
-1.40859e-06
2.52581e-06
-1.26128e-06
2.75597e-06
-1.1089e-06
2.96845e-06
-9.404e-07
3.14779e-06
-7.44768e-07
3.28302e-06
-5.23468e-07
3.37102e-06
-2.8327e-07
3.40442e-06
-2.41495e-08
3.37531e-06
2.50231e-07
3.28889e-06
5.34171e-07
3.13958e-06
8.16275e-07
2.93374e-06
1.07846e-06
2.68008e-06
1.32276e-06
2.33128e-06
1.54689e-06
1.93244e-06
1.62124e-06
1.5241e-06
1.42489e-06
1.01227e-06
1.17931e-06
6.13234e-07
9.45685e-07
4.87727e-07
5.25538e-07
3.10661e-08
4.13465e-07
-9.6504e-07
9.81813e-07
-1.98556e-06
1.39494e-06
-2.70141e-06
1.57485e-06
-3.41321e-06
1.68833e-06
-4.05498e-06
1.79104e-06
-4.61985e-06
1.83387e-06
-5.14304e-06
1.85019e-06
-5.63917e-06
1.83672e-06
-6.11513e-06
1.79532e-06
-6.56464e-06
1.72279e-06
-6.98808e-06
1.62824e-06
-7.38435e-06
1.5221e-06
-7.75634e-06
1.41385e-06
-8.10552e-06
1.31019e-06
-8.43466e-06
1.21443e-06
-8.74568e-06
1.12832e-06
-9.03984e-06
1.05033e-06
-9.3171e-06
9.77991e-07
-9.57607e-06
9.07191e-07
-9.81407e-06
8.33867e-07
-1.00274e-05
7.54086e-07
-1.02119e-05
6.65047e-07
-1.03633e-05
5.65122e-07
-1.04777e-05
4.54021e-07
-1.05519e-05
3.32511e-07
-1.05835e-05
2.02093e-07
-1.05703e-05
6.44445e-08
-1.05106e-05
-7.87852e-08
-1.04032e-05
-2.26079e-07
-1.02477e-05
-3.75925e-07
-1.00436e-05
-5.26748e-07
-9.79102e-06
-6.76975e-07
-9.49074e-06
-8.25052e-07
-9.14405e-06
-9.69548e-07
-8.75277e-06
-1.10927e-06
-8.31912e-06
-1.24345e-06
-7.84553e-06
-1.37196e-06
-7.33439e-06
-1.49557e-06
-6.78755e-06
-1.61643e-06
-6.20554e-06
-1.73858e-06
-5.5866e-06
-1.86798e-06
-4.92623e-06
-2.01164e-06
-4.21767e-06
-2.17593e-06
-3.45316e-06
-2.36599e-06
-2.62409e-06
-2.58727e-06
-1.71872e-06
-2.84658e-06
-7.22417e-07
-3.14246e-06
3.62789e-07
-3.44244e-06
1.49318e-06
-3.64248e-06
2.54326e-06
-3.56662e-06
3.36747e-06
-3.00744e-06
3.93415e-06
-2.14885e-06
4.34082e-06
-1.31005e-06
4.55451e-06
-4.33221e-07
4.53416e-06
4.53168e-07
4.28031e-06
1.35947e-06
3.84735e-06
2.05472e-06
3.33641e-06
2.62512e-06
2.68377e-06
2.8235e-06
1.90853e-06
2.45677e-06
1.32111e-06
8.55974e-07
-3.74068e-07
1.24509e-06
-2.70536e-06
2.97947e-06
-4.66667e-06
4.29937e-06
-6.09214e-06
4.75714e-06
-6.92362e-06
4.57352e-06
-7.50028e-06
4.07167e-06
-8.02765e-06
3.56834e-06
-8.57493e-06
3.10591e-06
-9.15947e-06
2.72484e-06
-9.75879e-06
2.39474e-06
-1.03428e-05
2.09288e-06
-1.08795e-05
1.79289e-06
-1.13419e-05
1.48015e-06
-1.17089e-05
1.14897e-06
-1.19664e-05
8.01063e-07
-1.21056e-05
4.42327e-07
-1.21226e-05
7.92748e-08
-1.20176e-05
-2.82191e-07
-1.17943e-05
-6.34592e-07
-1.14581e-05
-9.70331e-07
-1.10169e-05
-1.28227e-06
-1.04811e-05
-1.56365e-06
-9.86319e-06
-1.80858e-06
-9.17696e-06
-2.01288e-06
-8.43697e-06
-2.17412e-06
-7.65808e-06
-2.29085e-06
-6.85566e-06
-2.36185e-06
-6.04588e-06
-2.38613e-06
-5.24534e-06
-2.3642e-06
-4.47009e-06
-2.29923e-06
-3.73445e-06
-2.19719e-06
-3.05016e-06
-2.06594e-06
-2.42588e-06
-1.914e-06
-1.86707e-06
-1.74992e-06
-1.37607e-06
-1.58274e-06
-9.50775e-07
-1.42394e-06
-5.83354e-07
-1.28639e-06
-2.60458e-07
-1.1813e-06
3.44086e-08
-1.11516e-06
3.18534e-07
-1.09168e-06
6.09788e-07
-1.11521e-06
9.28907e-07
-1.18821e-06
1.29687e-06
-1.30163e-06
1.72194e-06
-1.42046e-06
2.18965e-06
-1.49399e-06
2.66915e-06
-1.491e-06
3.13093e-06
-1.41921e-06
3.559e-06
-1.30991e-06
3.95048e-06
-1.19102e-06
4.30867e-06
-1.07412e-06
4.63721e-06
-9.58488e-07
4.9378e-06
-8.41731e-07
5.21088e-06
-7.27699e-07
5.45757e-06
-6.25773e-07
5.68054e-06
-5.46678e-07
5.88618e-06
-5.03061e-07
6.08692e-06
-5.03033e-07
6.29765e-06
-5.4557e-07
6.53129e-06
-6.19801e-07
6.79394e-06
-6.95744e-07
7.07946e-06
-7.49946e-07
7.37519e-06
-7.66132e-07
7.65658e-06
-7.22754e-07
7.90585e-06
-6.36973e-07
8.12422e-06
-4.9063e-07
8.26107e-06
-2.93315e-07
8.33401e-06
-9.04674e-08
8.38131e-06
2.25446e-07
8.27722e-06
5.51244e-07
8.21163e-06
9.63028e-07
8.33983e-06
1.81501e-06
8.29534e-06
2.66976e-06
7.87067e-06
3.02708e-06
6.91616e-06
2.98244e-06
5.52081e-06
2.77986e-06
4.17192e-06
2.40737e-06
3.25145e-06
1.81183e-06
2.78365e-06
9.29414e-07
2.65943e-06
-6.58864e-08
2.77019e-06
-7.8546e-07
2.98238e-06
-1.02543e-06
3.18461e-06
-8.7603e-07
3.297e-06
-5.45728e-07
3.27434e-06
-2.49329e-07
3.17303e-06
-1.31771e-07
3.08431e-06
-1.22908e-07
3.00421e-06
-7.27229e-08
2.911e-06
-9.22326e-08
2.88776e-06
-4.26246e-07
3.0282e-06
-9.49093e-07
3.28073e-06
-1.15344e-06
3.4207e-06
-6.51214e-07
3.14865e-06
4.66096e-07
2.36009e-06
1.66625e-06
2.46502e-06
1.29994e-06
6.85675e-07
-1.5993e-06
1.04313e-06
-2.02593e-06
1.24525e-06
-1.90054e-06
1.44993e-06
-1.76379e-06
1.68398e-06
-1.64265e-06
1.92581e-06
-1.5031e-06
2.15001e-06
-1.33309e-06
2.33951e-06
-1.12991e-06
2.48118e-06
-8.86435e-07
2.56996e-06
-6.12251e-07
2.61011e-06
-3.23414e-07
2.61329e-06
-2.73371e-08
2.57871e-06
2.84811e-07
2.49715e-06
6.15735e-07
2.3606e-06
9.52822e-07
2.159e-06
1.28006e-06
1.89118e-06
1.59058e-06
1.60277e-06
1.8353e-06
1.32139e-06
1.90262e-06
9.26747e-07
1.81954e-06
5.11734e-07
1.59432e-06
3.17834e-07
1.13958e-06
-1.0977e-07
9.53143e-07
-1.10792e-06
1.41161e-06
-2.03885e-06
1.91274e-06
-2.76258e-06
2.11868e-06
-3.39236e-06
2.20463e-06
-3.99502e-06
2.29099e-06
-4.54129e-06
2.33731e-06
-5.05498e-06
2.34756e-06
-5.553e-06
2.34821e-06
-6.03324e-06
2.31697e-06
-6.48408e-06
2.24616e-06
-6.89955e-06
2.13826e-06
-7.28145e-06
2.01013e-06
-7.63489e-06
1.87554e-06
-7.96668e-06
1.74564e-06
-8.28249e-06
1.626e-06
-8.5871e-06
1.51904e-06
-8.88238e-06
1.4236e-06
-9.16831e-06
1.33626e-06
-9.44293e-06
1.25261e-06
-9.70317e-06
1.16744e-06
-9.9451e-06
1.07579e-06
-1.01642e-05
9.73171e-07
-1.03555e-05
8.56376e-07
-1.0514e-05
7.23598e-07
-1.06346e-05
5.74591e-07
-1.07124e-05
4.10372e-07
-1.07431e-05
2.32794e-07
-1.07229e-05
4.42515e-08
-1.06491e-05
-1.52628e-07
-1.05205e-05
-3.54656e-07
-1.03376e-05
-5.5882e-07
-1.01019e-05
-7.62442e-07
-9.8159e-06
-9.62995e-07
-9.48275e-06
-1.1582e-06
-9.10619e-06
-1.34611e-06
-8.6902e-06
-1.52526e-06
-8.23881e-06
-1.69485e-06
-7.75595e-06
-1.85483e-06
-7.24534e-06
-2.00618e-06
-6.71027e-06
-2.15149e-06
-6.15285e-06
-2.296e-06
-5.57265e-06
-2.44819e-06
-4.96588e-06
-2.61841e-06
-4.32628e-06
-2.81554e-06
-3.64793e-06
-3.04433e-06
-2.92768e-06
-3.30752e-06
-2.16425e-06
-3.61002e-06
-1.3548e-06
-3.95191e-06
-5.03889e-07
-4.29336e-06
3.53756e-07
-4.50012e-06
1.12188e-06
-4.33474e-06
1.72425e-06
-3.60982e-06
2.16347e-06
-2.58806e-06
2.59511e-06
-1.74169e-06
2.91856e-06
-7.56671e-07
3.05502e-06
3.16702e-07
2.99024e-06
1.42425e-06
2.7052e-06
2.33976e-06
2.30594e-06
3.02438e-06
1.69511e-06
3.43433e-06
1.14954e-06
3.00234e-06
-1.03543e-07
2.10905e-06
-2.23933e-06
3.38087e-06
-4.17783e-06
4.91797e-06
-5.42425e-06
5.54579e-06
-6.08943e-06
5.42232e-06
-6.46881e-06
4.9529e-06
-6.83004e-06
4.4329e-06
-7.26551e-06
4.00381e-06
-7.80495e-06
3.64536e-06
-8.42038e-06
3.34026e-06
-9.06513e-06
3.03949e-06
-9.69145e-06
2.7192e-06
-1.02587e-05
2.36012e-06
-1.07365e-05
1.95797e-06
-1.11041e-05
1.51653e-06
-1.13497e-05
1.04669e-06
-1.14687e-05
5.6131e-07
-1.14619e-05
7.24801e-08
-1.13324e-05
-4.11623e-07
-1.10867e-05
-8.80351e-07
-1.07314e-05
-1.32565e-06
-1.02745e-05
-1.73909e-06
-9.72636e-06
-2.11184e-06
-9.0991e-06
-2.43583e-06
-8.40659e-06
-2.7054e-06
-7.66281e-06
-2.91789e-06
-6.88128e-06
-3.07238e-06
-6.07554e-06
-3.1676e-06
-5.25998e-06
-3.20169e-06
-4.44975e-06
-3.17444e-06
-3.65922e-06
-3.08976e-06
-2.90053e-06
-2.95588e-06
-2.18349e-06
-2.78298e-06
-1.51665e-06
-2.58084e-06
-9.08513e-07
-2.35806e-06
-3.69723e-07
-2.12153e-06
8.70202e-08
-1.88068e-06
4.53628e-07
-1.65299e-06
7.35412e-07
-1.46308e-06
9.5202e-07
-1.33177e-06
1.12757e-06
-1.26723e-06
1.28564e-06
-1.27328e-06
1.4563e-06