/*--------------------------------*- C++ -*----------------------------------*\
  =========                 |
  \\      /  F ield         | OpenFOAM: The Open Source CFD Toolbox
   \\    /   O peration     | Website:  https://openfoam.org
    \\  /    A nd           | Version:  6
     \\/     M anipulation  |
\*---------------------------------------------------------------------------*/
FoamFile
{
    version     2.0;
    format      ascii;
    class       surfaceScalarField;
    location    "0.35";
    object      phi_0;
}
// * * * * * * * * * * * * * * * * * * * * * * * * * * * * * * * * * * * * * //

dimensions      [0 3 -1 0 0 0 0];

internalField   nonuniform List<scalar> 
24170
(
3.03936e-06
1.19109e-07
2.95674e-06
8.26251e-08
2.88719e-06
6.95447e-08
2.79738e-06
8.98165e-08
2.68904e-06
1.08335e-07
2.58057e-06
1.08466e-07
2.48864e-06
9.19315e-08
2.41484e-06
7.38035e-08
2.34639e-06
6.84473e-08
2.26621e-06
8.01768e-08
2.16566e-06
1.00551e-07
2.04945e-06
1.16213e-07
1.92737e-06
1.22076e-07
1.8069e-06
1.20478e-07
1.68788e-06
1.19018e-07
1.5628e-06
1.25077e-07
1.42167e-06
1.41132e-07
1.78018e-07
1.24365e-06
3.40237e-06
8.17398e-08
3.39535e-06
8.96444e-08
3.40743e-06
5.74697e-08
3.43518e-06
6.20609e-08
3.44308e-06
1.00437e-07
3.4224e-06
1.29148e-07
3.38884e-06
1.25491e-07
3.35866e-06
1.03983e-07
3.33885e-06
8.8259e-08
3.32777e-06
9.12561e-08
3.31869e-06
1.09626e-07
3.30384e-06
1.3107e-07
3.27781e-06
1.48098e-07
3.23767e-06
1.60617e-07
3.18303e-06
1.73661e-07
3.11394e-06
1.94169e-07
3.03154e-06
2.2353e-07
2.66959e-07
2.9426e-06
3.63854e-06
5.08391e-08
3.62362e-06
1.04562e-07
3.59537e-06
8.57261e-08
3.58883e-06
6.85995e-08
3.60985e-06
7.94209e-08
3.64112e-06
9.78706e-08
3.66193e-06
1.04685e-07
3.66266e-06
1.0325e-07
3.64778e-06
1.03138e-07
3.6302e-06
1.08843e-07
3.62014e-06
1.19686e-07
3.61901e-06
1.32198e-07
3.62135e-06
1.45758e-07
3.6201e-06
1.61867e-07
3.61044e-06
1.83319e-07
3.5917e-06
2.12907e-07
3.56691e-06
2.48324e-07
2.87381e-07
3.54649e-06
3.94287e-06
4.56383e-08
3.9417e-06
1.05728e-07
3.91682e-06
1.10608e-07
3.87539e-06
1.1003e-07
3.85149e-06
1.0332e-07
3.85286e-06
9.65004e-08
3.86452e-06
9.30301e-08
3.87177e-06
9.6e-08
3.87117e-06
1.03731e-07
3.86835e-06
1.1167e-07
3.87002e-06
1.18012e-07
3.87854e-06
1.23675e-07
3.89166e-06
1.3264e-07
3.90437e-06
1.49158e-07
3.9122e-06
1.75486e-07
3.91351e-06
2.11606e-07
3.90948e-06
2.52345e-07
2.92255e-07
3.90461e-06
4.18385e-06
7.25141e-08
4.19111e-06
9.8467e-08
4.19398e-06
1.07741e-07
4.17806e-06
1.25947e-07
4.15498e-06
1.26396e-07
4.1395e-06
1.11982e-07
4.13608e-06
9.64455e-08
4.13939e-06
9.26974e-08
4.14219e-06
1.00933e-07
4.14201e-06
1.11845e-07
4.14138e-06
1.1864e-07
4.14386e-06
1.21194e-07
4.15115e-06
1.25356e-07
4.16178e-06
1.38523e-07
4.17294e-06
1.6433e-07
4.18243e-06
2.02114e-07
4.18866e-06
2.4611e-07
2.89301e-07
4.19162e-06
4.56706e-06
7.13476e-08
4.53143e-06
1.34097e-07
4.53421e-06
1.04964e-07
4.55226e-06
1.07898e-07
4.56156e-06
1.17092e-07
4.55099e-06
1.2255e-07
4.52398e-06
1.23464e-07
4.49182e-06
1.2485e-07
4.46332e-06
1.29438e-07
4.44123e-06
1.33932e-07
4.42547e-06
1.34402e-07
4.41574e-06
1.3092e-07
4.41215e-06
1.28952e-07
4.41398e-06
1.36691e-07
4.41937e-06
1.5894e-07
4.42609e-06
1.95396e-07
4.43163e-06
2.40564e-07
2.87413e-07
4.43352e-06
4.75315e-06
1.42704e-07
4.79739e-06
8.98538e-08
4.85255e-06
4.98048e-08
4.8714e-06
8.90537e-08
4.86532e-06
1.23169e-07
4.84642e-06
1.41447e-07
4.81783e-06
1.52052e-07
4.7817e-06
1.60981e-07
4.74291e-06
1.68231e-07
4.70756e-06
1.69275e-07
4.68035e-06
1.61615e-07
4.66312e-06
1.48146e-07
4.6554e-06
1.36676e-07
4.65611e-06
1.35987e-07
4.66383e-06
1.51218e-07
4.67712e-06
1.821e-07
4.69416e-06
2.23531e-07
2.70001e-07
4.71157e-06
5.22344e-06
2.46043e-08
5.24639e-06
6.69095e-08
5.21655e-06
7.96451e-08
5.17171e-06
1.33891e-07
5.13601e-06
1.58866e-07
5.12565e-06
1.51806e-07
5.1408e-06
1.36905e-07
5.16948e-06
1.32298e-07
5.19719e-06
1.40525e-07
5.2134e-06
1.53062e-07
5.21317e-06
1.61854e-07
5.19561e-06
1.657e-07
5.16348e-06
1.68809e-07
5.12278e-06
1.76685e-07
5.08191e-06
1.92091e-07
5.04827e-06
2.15739e-07
5.02646e-06
2.45335e-07
2.78853e-07
5.01761e-06
5.6214e-06
-1.00029e-07
5.58347e-06
1.04846e-07
5.52872e-06
1.34395e-07
5.52777e-06
1.3484e-07
5.5485e-06
1.38132e-07
5.56437e-06
1.3594e-07
5.57689e-06
1.24386e-07
5.59778e-06
1.11405e-07
5.62915e-06
1.09151e-07
5.6602e-06
1.22016e-07
5.67658e-06
1.45475e-07
5.66987e-06
1.72404e-07
5.64102e-06
1.97666e-07
5.59773e-06
2.19971e-07
5.54962e-06
2.40198e-07
5.50448e-06
2.60884e-07
5.46666e-06
2.83152e-07
3.08401e-07
5.43711e-06
6.02672e-06
4.67261e-08
5.99393e-06
1.37632e-07
5.98979e-06
1.38535e-07
6.01279e-06
1.11842e-07
6.05178e-06
9.91454e-08
6.07714e-06
1.1058e-07
6.06916e-06
1.32368e-07
6.03134e-06
1.49218e-07
5.98077e-06
1.59723e-07
5.93274e-06
1.70046e-07
5.89367e-06
1.84547e-07
5.86339e-06
2.02681e-07
5.83994e-06
2.21116e-07
5.82246e-06
2.37451e-07
5.81102e-06
2.5164e-07
5.80567e-06
2.66234e-07
5.80591e-06
2.82913e-07
3.04395e-07
5.80992e-06
6.42494e-06
-6.57849e-08
6.51861e-06
4.39602e-08
6.50324e-06
1.53908e-07
6.42371e-06
1.91371e-07
6.34898e-06
1.73876e-07
6.31281e-06
1.46743e-07
6.31536e-06
1.2982e-07
6.33994e-06
1.24644e-07
6.36727e-06
1.32386e-07
6.38353e-06
1.5379e-07
6.38346e-06
1.84613e-07
6.36864e-06
2.17502e-07
6.3443e-06
2.45457e-07
6.3159e-06
2.65849e-07
6.28818e-06
2.79366e-07
6.26444e-06
2.89966e-07
6.24678e-06
3.00577e-07
3.14523e-07
6.23665e-06
5.74731e-06
5.57256e-08
5.74541e-06
4.58544e-08
5.76759e-06
1.31727e-07
5.7702e-06
1.88763e-07
5.75814e-06
1.85942e-07
5.7458e-06
1.59079e-07
5.74083e-06
1.34789e-07
5.74573e-06
1.19747e-07
5.75869e-06
1.19428e-07
5.77322e-06
1.39259e-07
5.78142e-06
1.76413e-07
5.77815e-06
2.20768e-07
5.76315e-06
2.60454e-07
5.73969e-06
2.8931e-07
5.71231e-06
3.06754e-07
5.68471e-06
3.17561e-07
5.65904e-06
3.26253e-07
3.36364e-07
5.63719e-06
6.98855e-06
-5.56923e-08
6.94057e-06
9.38406e-08
6.92029e-06
1.52006e-07
6.94982e-06
1.59232e-07
6.97306e-06
1.627e-07
6.96953e-06
1.62613e-07
6.95122e-06
1.53095e-07
6.9344e-06
1.36567e-07
6.9294e-06
1.24425e-07
6.93922e-06
1.29438e-07
6.95915e-06
1.56493e-07
6.97989e-06
2.00021e-07
6.99169e-06
2.48653e-07
6.98896e-06
2.92043e-07
6.97231e-06
3.23407e-07
6.94685e-06
3.43013e-07
6.92037e-06
3.5274e-07
3.58803e-07
6.89793e-06
8.46285e-06
-1.21236e-07
8.48668e-06
7.00113e-08
8.4684e-06
1.70286e-07
8.45002e-06
1.77611e-07
8.47716e-06
1.35565e-07
8.55425e-06
8.55219e-08
8.64219e-06
6.51512e-08
8.69929e-06
7.94732e-08
8.70997e-06
1.13739e-07
8.6853e-06
1.54108e-07
8.64705e-06
1.94741e-07
8.6126e-06
2.3448e-07
8.58852e-06
2.72728e-07
8.57364e-06
3.06922e-07
8.5643e-06
3.32752e-07
8.55809e-06
3.49225e-07
8.55482e-06
3.56008e-07
3.59485e-07
8.55414e-06
1.03196e-05
2.21111e-07
1.02756e-05
1.14067e-07
1.03919e-05
5.39525e-08
1.04807e-05
8.88448e-08
1.04759e-05
1.40338e-07
1.0413e-05
1.48414e-07
1.036e-05
1.18113e-07
1.03533e-05
8.61763e-08
1.03871e-05
7.99987e-08
1.04357e-05
1.05465e-07
1.04766e-05
1.5381e-07
1.04993e-05
2.11787e-07
1.05046e-05
2.67449e-07
1.04988e-05
3.12714e-07
1.0489e-05
3.42548e-07
1.04807e-05
3.57508e-07
1.04761e-05
3.60676e-07
3.55353e-07
1.04802e-05
1.26603e-05
-2.22664e-07
1.28113e-05
-3.69567e-08
1.28154e-05
4.98771e-08
1.28036e-05
1.00612e-07
1.28108e-05
1.33155e-07
1.28167e-05
1.42566e-07
1.28043e-05
1.30527e-07
1.27795e-05
1.1097e-07
1.27575e-05
1.0194e-07
1.275e-05
1.1295e-07
1.27625e-05
1.41387e-07
1.27948e-05
1.79403e-07
1.28433e-05
2.19033e-07
1.29002e-05
2.55737e-07
1.29553e-05
2.8748e-07
1.29992e-05
3.13577e-07
1.30247e-05
3.35172e-07
3.5534e-07
1.30247e-05
1.53859e-05
5.96282e-08
1.54922e-05
-1.43327e-07
1.56041e-05
-6.19885e-08
1.56672e-05
3.75176e-08
1.57305e-05
6.99023e-08
1.58084e-05
6.45927e-08
1.58761e-05
6.28813e-08
1.5897e-05
9.00723e-08
1.58567e-05
1.42202e-07
1.5773e-05
1.96707e-07
1.56792e-05
2.35177e-07
1.56036e-05
2.54933e-07
1.55592e-05
2.63424e-07
1.5545e-05
2.69994e-07
1.55529e-05
2.7958e-07
1.5573e-05
2.93513e-07
1.55982e-05
3.09963e-07
3.23206e-07
1.56303e-05
1.91433e-05
1.80603e-07
1.88587e-05
1.41206e-07
1.86771e-05
1.19633e-07
1.86456e-05
6.90554e-08
1.87175e-05
-1.99004e-09
1.88292e-05
-4.71534e-08
1.89393e-05
-4.71834e-08
1.90319e-05
-2.58922e-09
1.91046e-05
6.9564e-08
1.91552e-05
1.46117e-07
1.91801e-05
2.10215e-07
1.91798e-05
2.55236e-07
1.91616e-05
2.81678e-07
1.9138e-05
2.93579e-07
1.91228e-05
2.94771e-07
1.91255e-05
2.90812e-07
1.91517e-05
2.83722e-07
2.82506e-07
1.91924e-05
2.29947e-05
-4.76511e-08
2.3185e-05
-4.90676e-08
2.33662e-05
-6.16092e-08
2.34947e-05
-5.93646e-08
2.35183e-05
-2.56157e-08
2.34568e-05
1.42976e-08
2.33733e-05
3.63717e-08
2.3322e-05
4.87141e-08
2.33176e-05
7.39461e-08
2.33401e-05
1.23589e-07
2.33614e-05
1.88969e-07
2.33667e-05
2.4995e-07
2.33592e-05
2.89157e-07
2.33531e-05
2.99681e-07
2.33631e-05
2.84782e-07
2.33976e-05
2.56316e-07
2.34573e-05
2.24027e-07
1.98524e-07
2.35412e-05
1.697e-05
-2.12738e-07
1.69978e-05
-7.68855e-08
1.69977e-05
-6.14743e-08
1.70053e-05
-6.69928e-08
1.70127e-05
-3.29478e-08
1.70117e-05
1.52278e-08
1.69999e-05
4.81818e-08
1.69859e-05
6.2763e-08
1.6986e-05
7.38207e-08
1.70152e-05
9.43923e-08
1.7078e-05
1.26128e-07
1.71662e-05
1.61838e-07
1.72633e-05
1.92038e-07
1.73523e-05
2.10622e-07
1.74211e-05
2.15978e-07
1.74655e-05
2.11962e-07
1.74869e-05
2.0258e-07
1.93633e-07
1.74918e-05
1.49587e-05
1.32944e-07
1.48351e-05
4.66575e-08
1.4795e-05
-2.13778e-08
1.47525e-05
-2.44186e-08
1.47205e-05
-9.97364e-10
1.47074e-05
2.83079e-08
1.46991e-05
5.64721e-08
1.46863e-05
7.55908e-08
1.46774e-05
8.26926e-08
1.46879e-05
8.39156e-08
1.47258e-05
8.82236e-08
1.47872e-05
1.00476e-07
1.486e-05
1.19203e-07
1.49311e-05
1.3954e-07
1.49905e-05
1.56572e-07
1.50342e-05
1.68291e-07
1.50625e-05
1.74314e-07
1.77688e-07
1.50784e-05
1.27314e-05
-5.80507e-08
1.27452e-05
3.28447e-08
1.27257e-05
-1.88523e-09
1.27256e-05
-2.43158e-08
1.27444e-05
-1.97597e-08
1.27822e-05
-9.56308e-09
1.28378e-05
9.07671e-10
1.28974e-05
1.60268e-08
1.29427e-05
3.73317e-08
1.29656e-05
6.1024e-08
1.29719e-05
8.1916e-08
1.2975e-05
9.73487e-08
1.29866e-05
1.07652e-07
1.30116e-05
1.14549e-07
1.3048e-05
1.20207e-07
1.30899e-05
1.26304e-07
1.3131e-05
1.33241e-07
1.40364e-07
1.31683e-05
1.13194e-05
-7.52173e-09
1.12221e-05
1.30174e-07
1.11734e-05
4.68434e-08
1.11537e-05
-4.67349e-09
1.1159e-05
-2.49977e-08
1.11982e-05
-4.87535e-08
1.12582e-05
-5.91675e-08
1.13159e-05
-4.16488e-08
1.13536e-05
-3.65771e-10
1.13653e-05
4.93755e-08
1.13567e-05
9.04972e-08
1.13418e-05
1.12188e-07
1.13351e-05
1.14349e-07
1.13455e-05
1.04159e-07
1.13741e-05
9.16538e-08
1.14162e-05
8.41819e-08
1.14652e-05
8.42701e-08
9.3189e-08
1.15123e-05
9.70168e-06
-1.27756e-07
9.75904e-06
7.28157e-08
9.71957e-06
8.63126e-08
9.70146e-06
1.34352e-08
9.73317e-06
-5.67056e-08
9.78349e-06
-9.90776e-08
9.81906e-06
-9.47289e-08
9.82493e-06
-4.75258e-08
9.80651e-06
1.80587e-08
9.78153e-06
7.43523e-08
9.768e-06
1.04031e-07
9.77633e-06
1.03858e-07
9.80807e-06
8.2608e-08
9.85923e-06
5.30011e-08
9.92354e-06
2.73413e-08
9.99441e-06
1.33153e-08
1.00661e-05
1.25602e-08
2.57e-08
1.01336e-05
8.40252e-06
3.35733e-08
8.33241e-06
1.42925e-07
8.30417e-06
1.14548e-07
8.30762e-06
9.98408e-09
8.32327e-06
-7.23502e-08
8.3252e-06
-1.01009e-07
8.31366e-06
-8.31938e-08
8.3075e-06
-4.13595e-08
8.32474e-06
8.18449e-10
8.37116e-06
2.79344e-08
8.43893e-06
3.62555e-08
8.51196e-06
3.08251e-08
8.57437e-06
2.02031e-08
8.61645e-06
1.09178e-08
8.63788e-06
5.91272e-09
8.64503e-06
6.16709e-09
8.64664e-06
1.09544e-08
1.96972e-08
8.65264e-06
7.24053e-06
6.69215e-08
7.28331e-06
1.00148e-07
7.34009e-06
5.7763e-08
7.35321e-06
-3.13677e-09
7.31855e-06
-3.76939e-08
7.26415e-06
-4.66016e-08
7.22602e-06
-4.50711e-08
7.22431e-06
-3.96428e-08
7.25747e-06
-3.23449e-08
7.31079e-06
-2.53828e-08
7.36729e-06
-2.02446e-08
7.41503e-06
-1.69185e-08
7.44959e-06
-1.43542e-08
7.47242e-06
-1.19137e-08
7.48791e-06
-9.57664e-09
7.50085e-06
-6.76943e-09
7.51523e-06
-3.42531e-09
3.75192e-09
7.53117e-06
6.4218e-06
2.59118e-07
6.37926e-06
1.42683e-07
6.35379e-06
8.32379e-08
6.33448e-06
1.6169e-08
6.32673e-06
-2.99426e-08
6.33761e-06
-5.74841e-08
6.37564e-06
-8.31004e-08
6.4375e-06
-1.01496e-07
6.50632e-06
-1.01168e-07
6.56095e-06
-8.00185e-08
6.58732e-06
-4.66071e-08
6.58503e-06
-1.46363e-08
6.56544e-06
5.23531e-09
6.54374e-06
9.79275e-09
6.53141e-06
2.74916e-09
6.53341e-06
-8.77036e-09
6.54896e-06
-1.89748e-08
-2.3663e-08
6.57638e-06
5.43404e-06
1.53063e-07
5.61171e-06
-3.49924e-08
5.71041e-06
-1.54604e-08
5.7134e-06
1.31767e-08
5.67527e-06
8.18647e-09
5.63875e-06
-2.09623e-08
5.61319e-06
-5.75432e-08
5.59456e-06
-8.28637e-08
5.58244e-06
-8.90457e-08
5.58154e-06
-7.91179e-08
5.59616e-06
-6.12277e-08
5.62583e-06
-4.43081e-08
5.66498e-06
-3.39196e-08
5.70527e-06
-3.04879e-08
5.73879e-06
-3.07795e-08
5.76117e-06
-3.11425e-08
5.77193e-06
-2.97417e-08
-2.57452e-08
5.77402e-06
4.78768e-06
8.33958e-08
4.8065e-06
-5.38116e-08
4.84935e-06
-5.83106e-08
4.91015e-06
-4.76211e-08
4.96307e-06
-4.47329e-08
4.99417e-06
-5.2067e-08
5.00195e-06
-6.5326e-08
4.99303e-06
-7.39383e-08
4.97624e-06
-7.22582e-08
4.95947e-06
-6.23489e-08
4.94838e-06
-5.01368e-08
4.94503e-06
-4.09609e-08
4.94777e-06
-3.66587e-08
4.95294e-06
-3.56557e-08
4.95717e-06
-3.50086e-08
4.9589e-06
-3.28719e-08
4.95781e-06
-2.86536e-08
-2.34108e-08
4.95548e-06
4.11231e-06
4.0585e-06
4.00019e-06
3.95257e-06
3.90783e-06
3.85577e-06
3.79044e-06
3.7165e-06
3.64425e-06
3.5819e-06
3.53176e-06
3.4908e-06
3.45414e-06
3.41848e-06
3.38348e-06
3.3506e-06
3.32195e-06
3.29854e-06
-1.98126e-07
1.98126e-07
1.20567e-07
-3.18692e-07
7.74677e-07
-6.54111e-07
1.5074e-06
-7.32722e-07
2.1988e-06
-6.91402e-07
2.80988e-06
-6.11084e-07
3.3307e-06
-5.2082e-07
3.75643e-06
-4.25721e-07
4.08131e-06
-3.24887e-07
4.29767e-06
-2.16355e-07
4.39412e-06
-9.64557e-08
4.3646e-06
2.95257e-08
4.20286e-06
1.61736e-07
3.8979e-06
3.04962e-07
3.47421e-06
4.23689e-07
2.93305e-06
5.41166e-07
2.25023e-06
6.82817e-07
1.55518e-06
6.95049e-07
9.75173e-07
5.80007e-07
5.58476e-07
4.16696e-07
3.37589e-07
2.20887e-07
1.44494e-07
1.93095e-07
-8.4179e-08
2.28673e-07
-1.52647e-07
6.84685e-08
8.56164e-08
-2.38264e-07
3.90221e-07
-3.04604e-07
4.4014e-07
-4.99195e-08
3.32857e-07
1.07283e-07
-1.33142e-07
4.65999e-07
-7.34041e-07
6.00899e-07
-1.40213e-06
6.68087e-07
-2.13381e-06
7.31682e-07
-2.87672e-06
7.42914e-07
-3.61053e-06
7.33802e-07
-4.30699e-06
6.9646e-07
-4.95923e-06
6.52241e-07
-5.56002e-06
6.00792e-07
-6.10977e-06
5.4975e-07
-6.61059e-06
5.00821e-07
-7.06746e-06
4.56874e-07
-7.48546e-06
4.17992e-07
-7.86935e-06
3.83889e-07
-8.22263e-06
3.53286e-07
-8.54756e-06
3.24927e-07
-8.84462e-06
2.9706e-07
-9.11287e-06
2.68254e-07
-9.34989e-06
2.37015e-07
-9.55219e-06
2.02299e-07
-9.71566e-06
1.63476e-07
-9.836e-06
1.20341e-07
-9.90902e-06
7.30131e-08
-9.93151e-06
2.24953e-08
-9.90226e-06
-2.9253e-08
-9.82099e-06
-8.12726e-08
-9.68744e-06
-1.33541e-07
-9.5017e-06
-1.85746e-07
-9.26422e-06
-2.37483e-07
-8.976e-06
-2.88219e-07
-8.63843e-06
-3.37567e-07
-8.25312e-06
-3.85313e-07
-7.82162e-06
-4.31496e-07
-7.34514e-06
-4.76483e-07
-6.82409e-06
-5.21049e-07
-6.25767e-06
-5.66422e-07
-5.64346e-06
-6.14204e-07
-4.97715e-06
-6.66308e-07
-4.2521e-06
-7.25058e-07
-3.45912e-06
-7.92972e-07
-2.58719e-06
-8.71938e-07
-1.62419e-06
-9.62993e-07
-5.59032e-07
-1.06516e-06
6.15259e-07
-1.17429e-06
1.86924e-06
-1.25398e-06
3.14156e-06
-1.27232e-06
4.28617e-06
-1.1446e-06
5.14118e-06
-8.55016e-07
5.62035e-06
-4.7917e-07
5.715e-06
-9.46525e-08
5.40244e-06
3.12569e-07
4.66589e-06
7.36544e-07
3.62778e-06
1.03812e-06
2.28882e-06
1.33896e-06
1.03132e-06
1.2575e-06
4.13529e-07
6.17787e-07
3.60326e-07
5.3203e-08
7.37392e-07
-3.77066e-07
1.21045e-06
-4.73055e-07
1.23543e-06
-2.49788e-08
2.86518e-07
9.48907e-07
-1.76382e-06
2.05034e-06
-3.96489e-06
2.20107e-06
-5.91643e-06
1.95154e-06
-7.568e-06
1.65157e-06
-8.93432e-06
1.36632e-06
-1.00605e-05
1.12622e-06
-1.09896e-05
9.2904e-07
-1.17514e-05
7.61838e-07
-1.2363e-05
6.11625e-07
-1.28319e-05
4.68816e-07
-1.31601e-05
3.28261e-07
-1.33487e-05
1.88584e-07
-1.34004e-05
5.17419e-08
-1.33235e-05
-7.68958e-08
-1.31273e-05
-1.96259e-07
-1.28191e-05
-3.08228e-07
-1.2407e-05
-4.12013e-07
-1.19013e-05
-5.05756e-07
-1.13136e-05
-5.87698e-07
-1.06572e-05
-6.56433e-07
-9.94611e-06
-7.11041e-07
-9.19505e-06
-7.5107e-07
-8.41894e-06
-7.76105e-07
-7.63266e-06
-7.86281e-07
-6.85057e-06
-7.82092e-07
-6.08568e-06
-7.64891e-07
-5.34907e-06
-7.36602e-07
-4.64951e-06
-6.99561e-07
-3.9934e-06
-6.56114e-07
-3.38465e-06
-6.0875e-07
-2.82413e-06
-5.60524e-07
-2.30897e-06
-5.15153e-07
-1.83239e-06
-4.76582e-07
-1.38429e-06
-4.48098e-07
-9.53579e-07
-4.30713e-07
-5.28347e-07
-4.25232e-07
-9.56088e-08
-4.32738e-07
3.56351e-07
-4.51959e-07
8.35317e-07
-4.78966e-07
1.33883e-06
-5.03508e-07
1.85138e-06
-5.12556e-07
2.35139e-06
-5.00013e-07
2.82035e-06
-4.68955e-07
3.24742e-06
-4.27066e-07
3.62817e-06
-3.80751e-07
3.961e-06
-3.32836e-07
4.24458e-06
-2.83581e-07
4.47883e-06
-2.34248e-07
4.66852e-06
-1.89693e-07
4.82302e-06
-1.54495e-07
4.95554e-06
-1.32521e-07
5.08296e-06
-1.2742e-07
5.21911e-06
-1.36152e-07
5.3765e-06
-1.57388e-07
5.56307e-06
-1.86572e-07
5.77214e-06
-2.0907e-07
5.99569e-06
-2.23553e-07
6.21617e-06
-2.20477e-07
6.42249e-06
-2.0632e-07
6.60367e-06
-1.81181e-07
6.72119e-06
-1.17522e-07
6.79711e-06
-7.59199e-08
6.75504e-06
4.20763e-08
6.55563e-06
1.99411e-07
6.32483e-06
2.30795e-07
5.50875e-06
8.16079e-07
3.75576e-06
1.753e-06
1.8879e-06
1.86786e-06
7.28269e-07
1.15963e-06
5.2131e-07
2.06959e-07
4.98754e-07
2.2556e-08
8.02424e-08
4.18512e-07
-4.55757e-07
5.35999e-07
-7.38515e-07
2.82758e-07
-6.3855e-07
-9.9965e-08
-2.67064e-07
-3.71486e-07
1.83633e-07
-4.50696e-07
5.73475e-07
-3.89842e-07
8.53171e-07
-2.79697e-07
1.04028e-06
-1.87109e-07
1.16402e-06
-1.23743e-07
1.24287e-06
-7.88448e-08
1.31101e-06
-6.81406e-08
1.45391e-06
-1.42904e-07
1.77437e-06
-3.2046e-07
2.26165e-06
-4.87277e-07
2.71419e-06
-4.52545e-07
2.8992e-06
-1.85004e-07
2.80652e-06
9.26789e-08
2.56106e-06
2.45456e-07
4.24476e-07
2.13659e-06
3.54537e-07
-1.56411e-07
1.06062e-06
-1.02478e-06
1.72132e-06
-1.31481e-06
2.28277e-06
-1.29417e-06
2.76162e-06
-1.17025e-06
3.17531e-06
-1.02477e-06
3.53226e-06
-8.77767e-07
3.83311e-06
-7.26575e-07
4.07184e-06
-5.63614e-07
4.24144e-06
-3.85963e-07
4.33759e-06
-1.926e-07
4.35501e-06
1.21015e-08
4.29246e-06
2.24292e-07
4.14639e-06
4.51024e-07
3.90022e-06
6.69866e-07
3.5657e-06
8.75684e-07
3.17677e-06
1.07175e-06
2.67197e-06
1.19985e-06
2.03004e-06
1.22193e-06
1.43434e-06
1.01239e-06
9.89557e-07
6.65673e-07
6.34466e-07
5.48186e-07
4.63449e-07
3.9969e-07
5.74692e-07
-4.27749e-08
3.484e-07
-1.1971e-08
-3.34791e-07
3.78586e-07
-1.24845e-06
8.63741e-07
-2.12183e-06
9.80664e-07
-2.80828e-06
1.15244e-06
-3.47855e-06
1.27117e-06
-4.13903e-06
1.32857e-06
-4.74889e-06
1.34154e-06
-5.32589e-06
1.31991e-06
-5.86582e-06
1.27372e-06
-6.37451e-06
1.20515e-06
-6.84821e-06
1.12595e-06
-7.28888e-06
1.04147e-06
-7.69903e-06
9.59892e-07
-8.08153e-06
8.83321e-07
-8.4391e-06
8.14449e-07
-8.7736e-06
7.52487e-07
-9.08608e-06
6.96378e-07
-9.37625e-06
6.43448e-07
-9.64226e-06
5.90943e-07
-9.88113e-06
5.35925e-07
-1.0089e-05
4.7611e-07
-1.02618e-05
4.09841e-07
-1.03959e-05
3.36375e-07
-1.04882e-05
2.55747e-07
-1.05365e-05
1.687e-07
-1.054e-05
7.64533e-08
-1.04978e-05
-1.96133e-08
-1.04084e-05
-1.18698e-07
-1.02699e-05
-2.19778e-07
-1.00819e-05
-3.21564e-07
-9.84463e-06
-4.22986e-07
-9.55904e-06
-5.23081e-07
-9.22623e-06
-6.21028e-07
-8.84764e-06
-7.16153e-07
-8.42488e-06
-8.0807e-07
-7.95956e-06
-8.9682e-07
-7.45297e-06
-9.83075e-07
-6.90562e-06
-1.0684e-06
-6.3166e-06
-1.15544e-06
-5.68295e-06
-1.24786e-06
-4.99942e-06
-1.34984e-06
-4.2589e-06
-1.46557e-06
-3.45264e-06
-1.59924e-06
-2.56907e-06
-1.7555e-06
-1.59394e-06
-1.93813e-06
-5.16203e-07
-2.1429e-06
6.63915e-07
-2.35441e-06
1.92061e-06
-2.51067e-06
3.16538e-06
-2.51709e-06
4.20593e-06
-2.18516e-06
4.93399e-06
-1.58307e-06
5.35653e-06
-9.01716e-07
5.47878e-06
-2.16904e-07
5.3553e-06
4.36051e-07
4.98364e-06
1.10821e-06
4.39829e-06
1.62347e-06
3.6209e-06
2.11635e-06
2.70919e-06
2.16921e-06
1.65034e-06
1.67664e-06
1.44525e-06
2.58298e-07
1.51572e-06
-4.47541e-07
3.82306e-07
6.60362e-07
-1.99064e-06
2.34797e-06
-4.3784e-06
3.33667e-06
-6.07092e-06
3.74287e-06
-7.3619e-06
3.49205e-06
-8.44753e-06
3.03717e-06
-9.35049e-06
2.55452e-06
-1.01207e-05
2.13656e-06
-1.07866e-05
1.79211e-06
-1.13636e-05
1.50605e-06
-1.18555e-05
1.25374e-06
-1.22596e-05
1.01573e-06
-1.25711e-05
7.80273e-07
-1.27851e-05
5.42244e-07
-1.28984e-05
3.01939e-07
-1.2908e-05
6.12819e-08
-1.28069e-05
-1.77957e-07
-1.25913e-05
-4.11842e-07
-1.2265e-05
-6.34512e-07
-1.18358e-05
-8.41248e-07
-1.13138e-05
-1.02776e-06
-1.07112e-05
-1.19027e-06
-1.00417e-05
-1.32597e-06
-9.31963e-06
-1.43311e-06
-8.56012e-06
-1.51059e-06
-7.77849e-06
-1.55773e-06
-6.99039e-06
-1.57438e-06
-6.21093e-06
-1.56156e-06
-5.45395e-06
-1.52187e-06
-4.73098e-06
-1.45957e-06
-4.05065e-06
-1.37989e-06
-3.41852e-06
-1.28824e-06
-2.83732e-06
-1.18995e-06
-2.3069e-06
-1.09094e-06
-1.8238e-06
-9.98251e-07
-1.38132e-06
-9.1907e-07
-9.70309e-07
-8.59104e-07
-5.79314e-07
-8.21707e-07
-1.94754e-07
-8.09792e-07
1.99607e-07
-8.27099e-07
6.20722e-07
-8.73075e-07
1.07981e-06
-9.38054e-07
1.57574e-06
-9.99435e-07
2.09244e-06
-1.02926e-06
2.60558e-06
-1.01315e-06
3.09453e-06
-9.57909e-07
3.54896e-06
-8.8149e-07
3.96682e-06
-7.98618e-07
4.34852e-06
-7.14537e-07
4.6931e-06
-6.28157e-07
4.998e-06
-5.39149e-07
5.26107e-06
-4.52765e-07
5.48437e-06
-3.77791e-07
5.67521e-06
-3.23362e-07
5.84606e-06
-2.98271e-07
6.01423e-06
-3.04321e-07
6.19463e-06
-3.37788e-07
6.39744e-06
-3.89387e-07
6.62419e-06
-4.35814e-07
6.86685e-06
-4.66213e-07
7.11729e-06
-4.70918e-07
7.35175e-06
-4.40775e-07
7.55641e-06
-3.85844e-07
7.70848e-06
-2.69592e-07
7.78725e-06
-1.54687e-07
7.84321e-06
-1.38864e-08
7.76648e-06
2.76139e-07
7.54818e-06
4.49093e-07
7.45368e-06
9.10582e-07
7.2477e-06
1.95898e-06
6.48597e-06
2.62958e-06
5.0496e-06
2.596e-06
3.23985e-06
2.0167e-06
1.88488e-06
1.37753e-06
1.24672e-06
1.05667e-06
8.96078e-07
8.86641e-07
7.28829e-07
4.50007e-07
8.29817e-07
-2.00953e-07
1.13647e-06
-6.78141e-07
1.4957e-06
-8.09925e-07
1.77353e-06
-6.67676e-07
1.92183e-06
-4.27993e-07
2.00396e-06
-2.69235e-07
2.11239e-06
-2.32177e-07
2.24417e-06
-2.10627e-07
2.32785e-06
-1.51819e-07
2.37183e-06
-1.86886e-07
2.5056e-06
-4.54227e-07
2.83095e-06
-8.12627e-07
3.2773e-06
-8.98893e-07
3.59548e-06
-5.03191e-07
3.48398e-06
2.04182e-07
2.8419e-06
8.8754e-07
1.41287e-06
1.8535e-06
7.5944e-07
-9.15851e-07
1.40389e-06
-1.66923e-06
1.78709e-06
-1.69801e-06
2.05118e-06
-1.55826e-06
2.28856e-06
-1.40763e-06
2.52399e-06
-1.26021e-06
2.75382e-06
-1.1076e-06
2.96585e-06
-9.38604e-07
3.14458e-06
-7.42347e-07
3.27916e-06
-5.20541e-07
3.36646e-06
-2.79904e-07
3.39901e-06
-2.04501e-08
3.36919e-06
2.54115e-07
3.2821e-06
5.38118e-07
3.13196e-06
8.20001e-07
2.92562e-06
1.08203e-06
2.67059e-06
1.32678e-06
2.32015e-06
1.55029e-06
1.92182e-06
1.62027e-06
1.51213e-06
1.42208e-06
9.98822e-07
1.17898e-06
6.03367e-07
9.4364e-07
4.79711e-07
5.23347e-07
2.12089e-08
4.15727e-07
-9.76958e-07
9.86195e-07
-1.99832e-06
1.39995e-06
-2.71459e-06
1.58e-06
-3.42637e-06
1.69245e-06
-4.06847e-06
1.79453e-06
-4.63408e-06
1.83679e-06
-5.15796e-06
1.85245e-06
-5.65501e-06
1.8386e-06
-6.13235e-06
1.79725e-06
-6.58344e-06
1.72481e-06
-7.00834e-06
1.63005e-06
-7.40566e-06
1.52327e-06
-7.77819e-06
1.41399e-06
-8.12734e-06
1.30905e-06
-8.4559e-06
1.21187e-06
-8.76582e-06
1.12437e-06
-9.05848e-06
1.04515e-06
-9.33397e-06
9.71859e-07
-9.591e-06
9.00484e-07
-9.82706e-06
8.26997e-07
-1.00386e-05
7.47442e-07
-1.02214e-05
6.58943e-07
-1.03713e-05
5.59767e-07
-1.04845e-05
4.49524e-07
-1.05576e-05
3.28905e-07
-1.05883e-05
1.99373e-07
-1.05745e-05
6.26023e-08
-1.05143e-05
-7.97574e-08
-1.04068e-05
-2.26195e-07
-1.02514e-05
-3.75216e-07
-1.00477e-05
-5.25292e-07
-9.79574e-06
-6.74902e-07
-9.49628e-06
-8.22543e-07
-9.15048e-06
-9.6682e-07
-8.76009e-06
-1.10655e-06
-8.32722e-06
-1.24094e-06
-7.85425e-06
-1.3698e-06
-7.34349e-06
-1.49383e-06
-6.79682e-06
-1.61508e-06
-6.21479e-06
-1.73747e-06
-5.59577e-06
-1.86687e-06
-4.93535e-06
-2.01026e-06
-4.22686e-06
-2.17407e-06
-3.46255e-06
-2.36354e-06
-2.63379e-06
-2.58426e-06
-1.72875e-06
-2.84316e-06
-7.32664e-07
-3.13899e-06
3.52746e-07
-3.43982e-06
1.4841e-06
-3.64203e-06
2.53601e-06
-3.569e-06
3.36135e-06
-3.0105e-06
3.92766e-06
-2.14938e-06
4.33236e-06
-1.30642e-06
4.5432e-06
-4.2774e-07
4.51968e-06
4.59566e-07
4.26291e-06
1.36498e-06
3.82812e-06
2.05825e-06
3.31695e-06
2.62752e-06
2.66173e-06
2.82442e-06
1.88925e-06
2.44912e-06
1.29711e-06
8.50447e-07
-4.06418e-07
1.25598e-06
-2.73696e-06
2.9909e-06
-4.69497e-06
4.30597e-06
-6.11645e-06
4.75815e-06
-6.94474e-06
4.57116e-06
-7.52045e-06
4.06775e-06
-8.04725e-06
3.56397e-06
-8.59417e-06
3.10144e-06
-9.17814e-06
2.72053e-06
-9.77675e-06
2.39072e-06
-1.036e-05
2.08925e-06
-1.08959e-05
1.78973e-06
-1.13577e-05
1.47748e-06
-1.17242e-05
1.14676e-06
-1.19812e-05
7.99239e-07
-1.212e-05
4.40805e-07
-1.21368e-05
7.80045e-08
-1.20315e-05
-2.83232e-07
-1.18079e-05
-6.35395e-07
-1.14716e-05
-9.70872e-07
-1.10303e-05
-1.28251e-06
-1.04945e-05
-1.56355e-06
-9.87669e-06
-1.80809e-06
-9.19071e-06
-2.01195e-06
-8.45115e-06
-2.17268e-06
-7.67287e-06
-2.28886e-06
-6.87129e-06
-2.35931e-06
-6.06253e-06
-2.38314e-06
-5.26316e-06
-2.36092e-06
-4.48915e-06
-2.29588e-06
-3.75476e-06
-2.19397e-06
-3.07167e-06
-2.06298e-06
-2.4485e-06
-1.91141e-06
-1.8907e-06
-1.74776e-06
-1.40054e-06
-1.58109e-06
-9.75843e-07
-1.42295e-06
-6.08689e-07
-1.28622e-06
-2.85671e-07
-1.18212e-06
9.73661e-09
-1.11711e-06
2.94864e-07
-1.09492e-06
5.87693e-07
-1.11993e-06
9.09064e-07
-1.19445e-06
1.27982e-06
-1.30881e-06
1.7077e-06
-1.42731e-06
2.17759e-06
-1.49915e-06
2.6583e-06
-1.49386e-06
3.12045e-06
-1.42006e-06
3.54838e-06
-1.30942e-06
3.93949e-06
-1.18973e-06
4.29723e-06
-1.07228e-06
4.6253e-06
-9.56226e-07
4.92541e-06
-8.39265e-07
5.19806e-06
-7.25415e-07
5.44443e-06
-6.24154e-07
5.66729e-06
-5.46231e-07
5.87326e-06
-5.04241e-07
6.07495e-06
-5.06005e-07
6.28722e-06
-5.50057e-07
6.52275e-06
-6.24917e-07
6.78719e-06
-7.0026e-07
7.07395e-06
-7.5297e-07
7.37001e-06
-7.66975e-07
7.65074e-06
-7.21505e-07
7.89912e-06
-6.34225e-07
8.11599e-06
-4.86464e-07
8.25063e-06
-2.89326e-07
8.32309e-06
-8.63502e-08
8.36914e-06
2.30091e-07
8.2634e-06
5.54836e-07
8.2012e-06
9.72782e-07
8.32997e-06
1.83021e-06
8.28059e-06
2.67895e-06
7.84885e-06
3.02775e-06
6.88645e-06
2.9791e-06
5.48921e-06
2.77477e-06
4.14555e-06
2.40034e-06
3.23251e-06
1.79968e-06
2.77107e-06
9.11449e-07
2.65176e-06
-8.16428e-08
2.76489e-06
-7.91267e-07
2.97624e-06
-1.02128e-06
3.17552e-06
-8.66949e-07
3.28417e-06
-5.36651e-07
3.25848e-06
-2.43542e-07
3.15605e-06
-1.29748e-07
3.06734e-06
-1.2192e-07
2.98696e-06
-7.14353e-08
2.89387e-06
-9.37956e-08
2.87235e-06
-4.32702e-07
3.01501e-06
-9.55291e-07
3.26753e-06
-1.15141e-06
3.40304e-06
-6.38702e-07
3.12294e-06
4.84277e-07
2.3274e-06
1.68309e-06
2.47485e-06
1.26542e-06
6.85092e-07
-1.60094e-06
1.0415e-06
-2.02563e-06
1.24287e-06
-1.89938e-06
1.44692e-06
-1.76231e-06
1.68034e-06
-1.64105e-06
1.92152e-06
-1.50139e-06
2.1451e-06
-1.33117e-06
2.334e-06
-1.12751e-06
2.47514e-06
-8.83481e-07
2.56364e-06
-6.09044e-07
2.60384e-06
-3.20107e-07
2.60714e-06
-2.37427e-08
2.57241e-06
2.88841e-07
2.49049e-06
6.20039e-07
2.35336e-06
9.57136e-07
2.15081e-06
1.28457e-06
1.88214e-06
1.59544e-06
1.59398e-06
1.83845e-06
1.31112e-06
1.90313e-06
9.13694e-07
1.81951e-06
5.0184e-07
1.59083e-06
3.10908e-07
1.13457e-06
-1.19321e-07
9.53576e-07
-1.1192e-06
1.41561e-06
-2.05033e-06
1.91733e-06
-2.77399e-06
2.12361e-06
-3.4034e-06
2.20941e-06
-4.0063e-06
2.29535e-06
-4.55329e-06
2.34153e-06
-5.06774e-06
2.35123e-06
-5.56686e-06
2.35156e-06
-6.04893e-06
2.32067e-06
-6.50205e-06
2.25037e-06
-6.91971e-06
2.14247e-06
-7.3033e-06
2.01365e-06
-7.65779e-06
1.87776e-06
-7.98996e-06
1.74616e-06
-8.30554e-06
1.62462e-06
-8.60938e-06
1.51571e-06
-8.90344e-06
1.41844e-06
-9.18781e-06
1.32951e-06
-9.4606e-06
1.24465e-06
-9.71882e-06
1.1587e-06
-9.95862e-06
1.06679e-06
-1.01756e-05
9.64397e-07
-1.03649e-05
8.48253e-07
-1.05216e-05
7.16448e-07
-1.06407e-05
5.6863e-07
-1.07175e-05
4.05727e-07
-1.07476e-05
2.29522e-07
-1.07274e-05
4.23585e-08
-1.0654e-05
-1.53166e-07
-1.05263e-05
-3.53913e-07
-1.03446e-05
-5.56923e-07
-1.01103e-05
-7.59584e-07
-9.82574e-06
-9.59435e-07
-9.49403e-06
-1.15425e-06
-9.11874e-06
-1.34211e-06
-8.70375e-06
-1.52153e-06
-8.25301e-06
-1.69168e-06
-7.77039e-06
-1.85242e-06
-7.2596e-06
-2.00462e-06
-6.72397e-06
-2.15071e-06
-6.16567e-06
-2.29576e-06
-5.58445e-06
-2.4481e-06
-4.97667e-06
-2.61804e-06
-4.33615e-06
-2.81458e-06
-3.65701e-06
-3.04269e-06
-2.93597e-06
-3.3053e-06
-2.17164e-06
-3.60749e-06
-1.36102e-06
-3.94961e-06
-5.08545e-07
-4.2923e-06
3.50911e-07
-4.50148e-06
1.12062e-06
-4.33871e-06
1.72315e-06
-3.61303e-06
2.16087e-06
-2.5871e-06
2.59013e-06
-1.73569e-06
2.91097e-06
-7.4858e-07
3.04453e-06
3.26011e-07
2.9766e-06
1.43291e-06
2.68868e-06
2.34618e-06
2.28778e-06
3.02842e-06
1.67495e-06
3.43725e-06
1.12982e-06
2.99425e-06
-1.32607e-07
2.11287e-06
-2.27005e-06
3.39343e-06
-4.20493e-06
4.92579e-06
-5.44686e-06
5.54791e-06
-6.10941e-06
5.4207e-06
-6.48768e-06
4.94943e-06
-6.84867e-06
4.42874e-06
-7.28392e-06
3.99922e-06
-7.82308e-06
3.6406e-06
-8.43802e-06
3.33547e-06
-9.08222e-06
3.03492e-06
-9.70804e-06
2.71507e-06
-1.02749e-05
2.35658e-06
-1.07525e-05
1.95507e-06
-1.11199e-05
1.51421e-06
-1.13655e-05
1.04482e-06
-1.14844e-05
5.59734e-07
-1.14775e-05
7.11068e-08
-1.1348e-05
-4.12812e-07
-1.1102e-05
-8.8133e-07
-1.07465e-05
-1.32637e-06
-1.02896e-05
-1.73948e-06
-9.74128e-06
-2.11184e-06
-9.11401e-06
-2.43536e-06
-8.42159e-06
-2.70437e-06
-7.67803e-06
-2.91623e-06
-6.8969e-06
-3.06999e-06
-6.09174e-06
-3.16448e-06
-5.27691e-06
-3.19796e-06
-4.46748e-06
-3.17036e-06
-3.67772e-06
-3.08564e-06
-2.91974e-06
-2.95195e-06
-2.20334e-06
-2.77937e-06
-1.53719e-06
-2.57756e-06
-9.29879e-07
-2.35507e-06
-3.9217e-07
-2.1188e-06
6.32259e-08
-1.87835e-06
4.28424e-07
-1.65142e-06
7.09091e-07
-1.46279e-06
9.25166e-07
-1.33319e-06
1.10089e-06
-1.27065e-06
1.25996e-06
-1.27899e-06
1.43265e-06
-1.36714e-06
1.65609e-06