/*--------------------------------*- C++ -*----------------------------------*\
  =========                 |
  \\      /  F ield         | OpenFOAM: The Open Source CFD Toolbox
   \\    /   O peration     | Website:  https://openfoam.org
    \\  /    A nd           | Version:  6
     \\/     M anipulation  |
\*---------------------------------------------------------------------------*/
FoamFile
{
    version     2.0;
    format      ascii;
    class       volScalarField;
    location    "0.35";
    object      pMean;
}
// * * * * * * * * * * * * * * * * * * * * * * * * * * * * * * * * * * * * * //

dimensions      [0 2 -2 0 0 0 0];

internalField   nonuniform List<scalar> 
12225
(
2.159
1.61365
1.24378
1.0604
0.967412
0.89684
0.827286
0.760809
0.703368
0.658183
0.625592
0.605372
0.596703
0.598617
0.606689
0.608745
0.578695
0.44498
2.02272
1.57496
1.22752
1.0453
0.951975
0.882647
0.814615
0.749055
0.691831
0.646408
0.61308
0.591649
0.58071
0.57939
0.581861
0.57817
0.541814
0.436986
1.89101
1.54248
1.22746
1.04388
0.946249
0.876273
0.809022
0.743597
0.685586
0.638554
0.603097
0.57834
0.562918
0.554205
0.54714
0.530265
0.486009
0.389769
1.77518
1.50737
1.22716
1.04192
0.937519
0.865551
0.798863
0.73364
0.674659
0.625709
0.587515
0.558899
0.537912
0.521161
0.503319
0.474083
0.420964
0.326413
1.66937
1.46418
1.21913
1.03591
0.925334
0.851129
0.785316
0.720886
0.661336
0.610546
0.569469
0.536771
0.510007
0.485465
0.457771
0.418712
0.358657
0.267646
1.568
1.41263
1.20215
1.02623
0.911793
0.835286
0.770165
0.70671
0.646765
0.594056
0.549811
0.512704
0.480037
0.448035
0.411763
0.364871
0.300504
0.213801
1.47431
1.35639
1.17779
1.01334
0.897491
0.818367
0.753072
0.690223
0.629799
0.575035
0.527356
0.485616
0.447088
0.40818
0.364589
0.311588
0.24461
0.161255
1.39465
1.30008
1.14884
0.998053
0.88291
0.800984
0.734466
0.671567
0.610458
0.55353
0.502259
0.455776
0.411545
0.366299
0.316437
0.258481
0.189408
0.107716
1.32248
1.24351
1.11522
0.978949
0.866701
0.782598
0.714323
0.650875
0.588989
0.529997
0.475234
0.424141
0.374534
0.323578
0.268313
0.206149
0.134919
0.053467
1.24597
1.18385
1.07504
0.953017
0.845572
0.760492
0.690422
0.626033
0.56323
0.502282
0.444223
0.388762
0.334162
0.278058
0.218055
0.152161
0.0788235
-0.00275958
1.17776
1.12683
1.03354
0.924463
0.822839
0.737866
0.666071
0.600251
0.536144
0.473153
0.411902
0.352277
0.292983
0.232142
0.167821
0.0984937
0.023
-0.0590933
1.12271
1.07695
0.99423
0.895478
0.799629
0.715656
0.642557
0.575148
0.509541
0.444627
0.38063
0.317495
0.254274
0.189511
0.121637
0.049476
-0.0278988
-0.110727
1.06799
1.02749
0.953001
0.863057
0.772865
0.690453
0.616404
0.547349
0.480071
0.413222
0.346679
0.280364
0.213601
0.145298
0.0742326
-0.000501739
-0.0795661
-0.163075
1.0138
0.974942
0.907487
0.82575
0.741313
0.660946
0.586214
0.515353
0.446013
0.37685
0.307485
0.237789
0.167321
0.0953421
0.020975
-0.0564397
-0.137412
-0.222024
0.952484
0.916544
0.855507
0.781105
0.702181
0.624158
0.549013
0.476248
0.404479
0.332628
0.260211
0.187042
0.112846
0.0371734
-0.0405246
-0.120695
-0.203649
-0.28948
0.88136
0.852233
0.798118
0.730001
0.655769
0.580009
0.50477
0.430337
0.356121
0.28144
0.205885
0.129286
0.0514994
-0.0276817
-0.10856
-0.191374
-0.276342
-0.363432
0.811187
0.787407
0.738441
0.674865
0.603947
0.529662
0.454
0.377722
0.300858
0.223145
0.144337
0.0643362
-0.0168937
-0.0993748
-0.183212
-0.268466
-0.355253
-0.443535
0.760133
0.734528
0.686356
0.624224
0.554033
0.479355
0.402211
0.323577
0.243787
0.16286
0.0807364
-0.00256928
-0.086982
-0.172404
-0.258801
-0.346134
-0.434412
-0.523539
0.724248
0.695797
0.645503
0.581496
0.509121
0.431873
0.351854
0.270129
0.187097
0.102838
0.0174052
-0.06905
-0.156321
-0.244221
-0.332634
-0.421468
-0.510661
-0.600081
0.711508
0.683281
0.629314
0.559862
0.482196
0.400599
0.317182
0.23264
0.146971
0.0600834
-0.0278956
-0.11665
-0.205856
-0.295288
-0.384823
-0.474372
-0.563857
-0.653177
0.728187
0.695983
0.635107
0.557897
0.473456
0.386993
0.300407
0.213543
0.125707
0.0366264
-0.0534181
-0.143923
-0.234493
-0.324921
-0.415133
-0.505065
-0.594643
-0.683737
0.769629
0.728009
0.655874
0.567591
0.474534
0.382833
0.293387
0.204461
0.114486
0.0231793
-0.0688565
-0.160905
-0.252562
-0.343717
-0.434375
-0.524507
-0.614038
-0.702843
0.821405
0.769942
0.683717
0.581526
0.479003
0.382846
0.291598
0.201212
0.109351
0.0160549
-0.0776116
-0.170781
-0.263147
-0.354745
-0.445659
-0.535875
-0.625314
-0.713842
0.875474
0.816106
0.713132
0.594795
0.483331
0.384373
0.292322
0.200671
0.106941
0.0118668
-0.0830604
-0.176991
-0.269811
-0.361702
-0.452791
-0.543044
-0.632328
-0.720521
0.941098
0.867358
0.74229
0.607136
0.489187
0.389347
0.29676
0.203392
0.107546
0.0108452
-0.0850124
-0.179399
-0.272456
-0.364485
-0.455632
-0.545857
-0.635043
-0.723008
1.0183
0.91887
0.764592
0.614612
0.494559
0.395782
0.302498
0.206897
0.108855
0.0107564
-0.0857999
-0.180535
-0.273809
-0.365972
-0.457142
-0.547271
-0.636261
-0.72402
1.11445
0.968227
0.777051
0.61663
0.499274
0.403078
0.309018
0.21116
0.111239
0.0121026
-0.084973
-0.180064
-0.273681
-0.366147
-0.457528
-0.547733
-0.636668
-0.724222
1.23504
1.01415
0.781127
0.614943
0.502958
0.409737
0.31518
0.215894
0.115129
0.0158348
-0.0811135
-0.176071
-0.26961
-0.361997
-0.45323
-0.543156
-0.631788
-0.719531
1.36471
1.05319
0.78031
0.610071
0.501665
0.409552
0.313855
0.213224
0.111787
0.0123745
-0.0844977
-0.179373
-0.272881
-0.36521
-0.456383
-0.546085
-0.634195
-0.72014
1.49643
1.09512
0.796837
0.623386
0.515254
0.422224
0.324807
0.222631
0.120151
0.0200748
-0.0772895
-0.172579
-0.26647
-0.3591
-0.450545
-0.540367
-0.628713
-0.714801
-3.2472
-3.28295
-3.32597
-3.3491
-3.33711
-3.29846
-3.26982
-3.29316
-3.39777
-3.59314
-3.86941
-4.203
-4.56391
-4.92326
-5.2574
-5.54876
-5.78572
-5.96212
-6.07646
-6.13154
-6.13416
-6.09596
-6.02928
-5.94428
-5.852
-5.76619
-5.70266
-5.67348
-5.68276
-5.73249
-5.82686
-5.96898
-6.16129
-6.39587
-6.65384
-6.92388
-7.20717
-7.50751
-7.83
-8.18054
-8.55999
-8.96236
-9.37211
-9.76573
-10.1259
-10.4522
-10.7496
-11.0077
-11.2071
-11.3653
-11.5128
-11.6587
-11.7873
-11.879
-11.9337
-11.9683
-12.0031
-12.0537
-12.1161
-12.1845
-12.2613
-12.3501
-12.4653
-12.6112
-12.7765
-12.946
-13.1064
-13.2409
-13.3318
-13.3695
-13.3436
-13.2443
-13.0866
-12.9083
-12.7345
-12.5685
-12.4048
-12.2527
-12.1242
-12.0172
-11.9107
-11.7838
-11.6176
-11.4086
-11.1728
-10.9113
-10.6206
-10.3109
-9.99801
-9.67806
-9.33893
-8.97518
-8.58133
-8.17094
-7.78901
-7.43571
-7.0586
-6.60803
-6.05655
-5.40346
-4.65328
-3.80021
-2.88879
-1.99337
-1.12849
-0.28226
0.502206
1.17406
1.74858
2.25846
2.72792
3.18443
3.65546
4.16266
4.71447
5.31189
5.95639
6.64565
7.36722
8.10009
8.81725
9.50049
10.1441
10.7059
11.1319
11.436
11.6511
11.795
11.8909
11.9819
12.1138
12.2942
12.5161
12.7226
12.7773
12.6385
12.4095
12.1448
11.862
11.6477
11.5692
11.633
11.8287
12.1294
12.488
12.8735
13.299
13.7919
14.359
14.9835
15.6363
16.2915
16.9273
17.5245
18.048
18.4373
18.646
18.6939
18.6453
18.5449
18.4137
18.2617
18.093
17.9198
17.7732
17.6824
17.6554
17.685
17.7563
17.8472
17.9271
17.9644
17.9426
17.8699
17.7718
17.6738
17.6009
17.574
17.6329
17.7354
-3.44426
-3.48896
-3.55334
-3.61074
-3.64498
-3.66832
-3.71479
-3.81755
-3.99401
-4.2428
-4.54805
-4.88635
-5.23228
-5.56323
-5.8625
-6.11814
-6.32155
-6.46849
-6.55944
-6.5987
-6.59317
-6.55188
-6.48602
-6.40702
-6.32555
-6.25309
-6.20309
-6.18674
-6.20865
-6.27082
-6.38453
-6.55709
-6.77821
-7.03792
-7.32206
-7.61544
-7.92274
-8.24382
-8.57665
-8.93028
-9.30326
-9.68573
-10.068
-10.4399
-10.789
-11.1077
-11.402
-11.6685
-11.8919
-12.075
-12.2369
-12.3792
-12.4952
-12.5773
-12.6301
-12.6643
-12.6946
-12.7385
-12.7987
-12.8699
-12.9511
-13.0521
-13.1783
-13.3247
-13.4837
-13.641
-13.7815
-13.887
-13.9436
-13.9448
-13.8894
-13.7759
-13.6216
-13.4593
-13.3087
-13.1683
-13.023
-12.8839
-12.7626
-12.6458
-12.5121
-12.355
-12.1701
-11.9465
-11.7011
-11.4336
-11.1385
-10.8201
-10.4922
-10.1576
-9.81112
-9.44414
-9.06605
-8.69328
-8.34688
-8.00402
-7.61291
-7.1361
-6.55419
-5.86886
-5.09882
-4.25147
-3.3595
-2.4746
-1.60685
-0.771259
-0.0138515
0.636178
1.21169
1.73772
2.23336
2.7211
3.22461
3.76226
4.34195
4.96655
5.63914
6.35546
7.1011
7.85374
8.58882
9.27463
9.89669
10.432
10.8477
11.1589
11.3841
11.538
11.6425
11.7415
11.8809
12.0674
12.2639
12.3914
12.3669
12.2031
11.9769
11.719
11.4659
11.299
11.2601
11.352
11.5633
11.8641
12.2123
12.5927
13.0259
13.5311
14.1094
14.744
15.4078
16.0749
16.723
17.3267
17.8419
18.2094
18.404
18.4608
18.4325
18.3488
18.2266
18.0764
17.9059
17.7345
17.5959
17.5139
17.4934
17.5284
17.6035
17.6949
17.7722
17.8045
17.7785
17.7029
17.602
17.497
17.4121
17.3599
17.3811
17.4125
-3.57455
-3.61883
-3.70942
-3.83709
-3.99008
-4.1686
-4.38381
-4.64354
-4.94497
-5.27639
-5.62113
-5.96239
-6.2854
-6.57802
-6.83171
-7.04117
-7.20313
-7.31713
-7.3849
-7.41044
-7.39984
-7.35958
-7.29714
-7.22292
-7.14963
-7.08914
-7.04962
-7.0397
-7.06946
-7.14629
-7.27761
-7.46801
-7.70644
-7.98359
-8.29208
-8.61688
-8.95293
-9.30079
-9.65869
-10.0276
-10.4019
-10.7731
-11.136
-11.4895
-11.8349
-12.1658
-12.4726
-12.7488
-12.9928
-13.2008
-13.376
-13.5162
-13.6184
-13.692
-13.7454
-13.7844
-13.8165
-13.8501
-13.8995
-13.9718
-14.0633
-14.1772
-14.3103
-14.4539
-14.5987
-14.7312
-14.8347
-14.8951
-14.9069
-14.8713
-14.7935
-14.6823
-14.5551
-14.4262
-14.2984
-14.1698
-14.0373
-13.9106
-13.7855
-13.6421
-13.4745
-13.283
-13.0699
-12.8297
-12.5724
-12.2986
-12.0007
-11.6758
-11.3304
-10.9755
-10.6178
-10.2614
-9.92149
-9.6045
-9.29571
-8.95543
-8.53981
-8.02332
-7.39954
-6.68405
-5.90217
-5.0703
-4.20442
-3.32787
-2.46383
-1.65171
-0.92017
-0.269631
0.32412
0.879388
1.41552
1.95002
2.50082
3.08235
3.70387
4.37205
5.0897
5.84885
6.63201
7.41445
8.16203
8.84048
9.43548
9.942
10.3545
10.677
10.9147
11.0797
11.1954
11.3097
11.4618
11.6354
11.7587
11.7632
11.651
11.4681
11.2412
10.9985
10.7985
10.6928
10.7018
10.8303
11.0638
11.3681
11.7103
12.0955
12.544
13.0656
13.6587
14.3087
14.9909
15.6777
16.3427
16.9517
17.4506
17.791
17.9777
18.0526
18.0503
17.9882
17.8778
17.7295
17.559
17.3955
17.2717
17.2052
17.1985
17.2445
17.3262
17.4175
17.4884
17.5126
17.4814
17.4016
17.2937
17.1743
17.0671
16.9852
16.9611
16.9197
-3.67177
-3.73454
-3.89171
-4.14343
-4.46489
-4.82518
-5.20524
-5.59418
-5.98204
-6.35956
-6.71902
-7.05275
-7.35403
-7.61788
-7.84152
-8.024
-8.16494
-8.26561
-8.32877
-8.358
-8.35701
-8.33064
-8.28622
-8.23377
-8.18215
-8.13917
-8.11391
-8.11514
-8.15191
-8.23423
-8.36897
-8.55667
-8.79268
-9.06947
-9.37914
-9.7121
-10.0628
-10.4306
-10.8134
-11.2027
-11.5937
-11.9811
-12.3582
-12.7303
-13.1025
-13.466
-13.8039
-14.1044
-14.3643
-14.5792
-14.7481
-14.88
-14.978
-15.0495
-15.1014
-15.1392
-15.1675
-15.1959
-15.2377
-15.3029
-15.3927
-15.5038
-15.6304
-15.7631
-15.8884
-15.9917
-16.0594
-16.0852
-16.0688
-16.016
-15.9359
-15.8379
-15.7316
-15.6203
-15.5044
-15.3813
-15.2512
-15.1179
-14.9732
-14.8057
-14.617
-14.4073
-14.1722
-13.916
-13.648
-13.367
-13.0626
-12.7333
-12.3838
-12.0248
-11.671
-11.3417
-11.0465
-10.7694
-10.48
-10.1358
-9.69669
-9.14429
-8.48655
-7.7552
-6.9786
-6.16055
-5.30524
-4.43568
-3.58709
-2.78965
-2.05653
-1.38568
-0.763507
-0.171563
0.409724
0.994066
1.59427
2.22286
2.89152
3.60892
4.37626
5.1826
6.00637
6.81465
7.56725
8.236
8.81635
9.31146
9.72214
10.0479
10.2894
10.4561
10.5794
10.7108
10.8699
11.0021
11.0232
10.927
10.7614
10.5535
10.3158
10.0955
9.94297
9.88633
9.93906
10.1052
10.3662
10.6846
11.0366
11.4375
11.9031
12.4399
13.0481
13.7166
14.421
15.1299
15.811
16.4221
16.9059
17.2322
17.4256
17.524
17.5472
17.504
17.4029
17.2573
17.0919
16.9414
16.8355
16.787
16.7963
16.8555
16.9458
17.0374
17.0993
17.1126
17.075
16.9903
16.872
16.7324
16.5977
16.4888
16.427
16.3446
-3.83369
-3.95906
-4.23522
-4.62656
-5.07827
-5.54912
-6.01707
-6.47108
-6.90263
-7.30657
-7.68179
-8.02591
-8.33501
-8.60526
-8.83483
-9.02357
-9.17236
-9.28335
-9.36022
-9.407
-9.42771
-9.42737
-9.41317
-9.39298
-9.37401
-9.36357
-9.36916
-9.39713
-9.45433
-9.54888
-9.68544
-9.86387
-10.0815
-10.3353
-10.6234
-10.943
-11.2912
-11.6669
-12.0637
-12.4723
-12.8869
-13.306
-13.7267
-14.1485
-14.566
-14.9647
-15.3276
-15.6427
-15.9058
-16.1213
-16.2937
-16.4246
-16.5176
-16.5807
-16.6221
-16.6469
-16.6595
-16.6723
-16.6986
-16.7475
-16.8202
-16.9134
-17.0212
-17.1328
-17.2336
-17.3097
-17.3513
-17.3557
-17.3259
-17.2681
-17.1883
-17.0945
-16.9929
-16.8874
-16.7794
-16.6623
-16.531
-16.3855
-16.2217
-16.0394
-15.8419
-15.6241
-15.3802
-15.1198
-14.85
-14.5652
-14.2587
-13.9329
-13.5908
-13.2428
-12.9132
-12.6234
-12.365
-12.1104
-11.8273
-11.4726
-11.0107
-10.4317
-9.75595
-9.02278
-8.25384
-7.43989
-6.58846
-5.73146
-4.89807
-4.10007
-3.34898
-2.65
-1.99325
-1.35896
-0.729912
-0.0952727
0.55457
1.23187
1.95035
2.71909
3.53714
4.39025
5.25047
6.0779
6.83373
7.49943
8.0755
8.56457
8.96833
9.28858
9.52424
9.68476
9.8114
9.95263
10.0998
10.1634
10.0902
9.93309
9.73311
9.49583
9.24979
9.05174
8.9339
8.91472
9.00624
9.20835
9.49901
9.8403
10.2141
10.6367
11.1205
11.6726
12.2968
12.9849
13.7121
14.4422
15.136
15.7464
16.2212
16.5472
16.7587
16.8857
16.9367
16.9134
16.8227
16.6818
16.5238
16.3882
16.3014
16.2711
16.2951
16.3654
16.4627
16.5535
16.606
16.6082
16.5637
16.4731
16.3415
16.1786
16.0156
15.8828
15.7959
15.6989
-4.13996
-4.35112
-4.73904
-5.21287
-5.71739
-6.22875
-6.73385
-7.22514
-7.69659
-8.14359
-8.56288
-8.94968
-9.29845
-9.60464
-9.86718
-10.0877
-10.2681
-10.4105
-10.5182
-10.595
-10.6462
-10.6791
-10.7012
-10.7193
-10.741
-10.7735
-10.8221
-10.89
-10.98
-11.0961
-11.2407
-11.414
-11.6161
-11.8491
-12.1168
-12.4223
-12.7657
-13.1447
-13.5516
-13.9785
-14.4209
-14.8771
-15.3434
-15.8106
-16.2611
-16.6758
-17.0418
-17.3546
-17.6136
-17.8252
-17.9955
-18.1216
-18.2046
-18.2507
-18.268
-18.2635
-18.247
-18.2326
-18.2326
-18.2546
-18.2999
-18.3659
-18.4466
-18.5302
-18.6026
-18.6513
-18.6682
-18.653
-18.6109
-18.5469
-18.4615
-18.3611
-18.2543
-18.1501
-18.0498
-17.9398
-17.8076
-17.6514
-17.4739
-17.2826
-17.0811
-16.8624
-16.6244
-16.3752
-16.1159
-15.8395
-15.5426
-15.2281
-14.8991
-14.573
-14.2805
-14.033
-13.8042
-13.5645
-13.2817
-12.9142
-12.4332
-11.8384
-11.158
-10.4283
-9.66171
-8.84759
-8.00311
-7.16301
-6.33935
-5.5321
-4.75776
-4.02697
-3.33048
-2.64986
-1.97135
-1.28595
-0.585667
0.142053
0.912176
1.73325
2.60142
3.49788
4.3883
5.23027
5.99108
6.65883
7.23338
7.71595
8.11012
8.42034
8.64478
8.79557
8.91952
9.05523
9.16378
9.14627
9.00391
8.81134
8.5842
8.32366
8.07942
7.9032
7.81413
7.82718
7.95255
8.18612
8.5045
8.87139
9.27139
9.71785
10.2212
10.7899
11.4306
12.1378
12.8861
13.6351
14.3392
14.949
15.4211
15.7557
15.991
16.1493
16.2295
16.2273
16.1489
16.0158
15.8686
15.7502
15.6833
15.6705
15.707
15.7847
15.8845
15.9713
16.0144
16.0081
15.9578
15.8599
15.7137
15.5284
15.3401
15.1868
15.0844
14.9856
-4.63427
-4.88307
-5.29039
-5.76211
-6.26451
-6.78589
-7.31625
-7.84612
-8.36771
-8.87378
-9.35589
-9.80447
-10.2117
-10.5731
-10.8888
-11.1605
-11.3901
-11.5797
-11.7331
-11.8546
-11.9503
-12.0277
-12.0953
-12.1614
-12.2333
-12.3175
-12.4177
-12.5347
-12.6683
-12.8189
-12.9869
-13.1728
-13.3799
-13.6136
-13.8816
-14.1898
-14.5404
-14.931
-15.3564
-15.8081
-16.2801
-16.7691
-17.2672
-17.7581
-18.2173
-18.626
-18.9787
-19.2759
-19.5198
-19.7166
-19.8695
-19.9741
-20.0307
-20.0431
-20.0199
-19.9739
-19.9192
-19.8691
-19.8352
-19.8238
-19.8356
-19.8685
-19.9159
-19.9655
-20.0042
-20.0205
-20.0078
-19.9679
-19.9095
-19.8341
-19.7372
-19.6241
-19.5077
-19.4005
-19.3007
-19.1882
-19.0467
-18.8767
-18.687
-18.4883
-18.285
-18.0731
-17.8521
-17.6252
-17.3888
-17.1352
-16.8603
-16.5645
-16.255
-15.9593
-15.7104
-15.5047
-15.305
-15.0813
-14.8014
-14.4265
-13.9355
-13.336
-12.6576
-11.9294
-11.1597
-10.3453
-9.51099
-8.68626
-7.86489
-7.04263
-6.24147
-5.47544
-4.73652
-4.00942
-3.28295
-2.54911
-1.79988
-1.02203
-0.200348
0.67173
1.58647
2.51976
3.43338
4.28797
5.05765
5.73176
6.30704
6.7844
7.16949
7.46786
7.67848
7.81749
7.93029
8.04287
8.09352
8.00042
7.81216
7.59577
7.34578
7.07256
6.83954
6.6865
6.6248
6.66741
6.82201
7.08179
7.42354
7.81383
8.23866
8.70824
9.23153
9.81773
10.4752
11.2001
11.967
12.7324
13.4457
14.0568
14.5314
14.879
15.1396
15.3291
15.4381
15.4568
15.3917
15.2689
15.1358
15.036
14.9888
14.9929
15.0406
15.1231
15.2213
15.3013
15.3358
15.3245
15.2702
15.1644
15.005
14.8023
14.5941
14.4241
14.3104
14.2128
-5.17448
-5.39487
-5.75308
-6.18985
-6.68312
-7.21598
-7.77395
-8.34515
-8.91977
-9.48791
-10.0379
-10.5569
-11.035
-11.4672
-11.8528
-12.1928
-12.4888
-12.7432
-12.9592
-13.1405
-13.293
-13.4248
-13.5451
-13.6635
-13.7884
-13.9254
-14.0769
-14.2432
-14.4232
-14.6158
-14.8212
-15.0418
-15.2825
-15.5504
-15.8539
-16.1992
-16.5868
-17.0138
-17.4756
-17.9625
-18.4661
-18.9806
-19.4936
-19.984
-20.4308
-20.8217
-21.1538
-21.4273
-21.6447
-21.8116
-21.9296
-21.9935
-22.0041
-21.9668
-21.8923
-21.7966
-21.6948
-21.6
-21.5229
-21.4691
-21.4388
-21.4296
-21.4345
-21.4423
-21.4402
-21.4178
-21.3702
-21.3013
-21.2225
-21.1318
-21.0196
-20.8905
-20.7578
-20.6332
-20.5136
-20.3793
-20.2162
-20.027
-19.8233
-19.6168
-19.4141
-19.2145
-19.0166
-18.8189
-18.6146
-18.3942
-18.1496
-17.8803
-17.5994
-17.3432
-17.1428
-16.9804
-16.8133
-16.6114
-16.3433
-15.9735
-15.4861
-14.8926
-14.2193
-13.4888
-12.7113
-11.8938
-11.065
-10.2461
-9.41758
-8.57609
-7.74763
-6.94752
-6.16979
-5.40246
-4.63522
-3.85989
-3.0671
-2.24302
-1.3734
-0.454793
0.500956
1.46541
2.39964
3.26966
4.05386
4.7389
5.31788
5.79207
6.169
6.45507
6.65172
6.77806
6.87289
6.94995
6.93877
6.78556
6.56677
6.33147
6.06267
5.78596
5.5695
5.44043
5.40525
5.475
5.65466
5.93557
6.29519
6.70375
7.14868
7.63804
8.18008
8.78379
9.45782
10.1993
10.9826
11.7617
12.4828
13.0965
13.5764
13.9386
14.2231
14.4419
14.5777
14.6166
14.5658
14.4559
14.3389
14.2574
14.228
14.2477
14.3057
14.3907
14.485
14.5572
14.5855
14.5726
14.5158
14.4033
14.2349
14.0219
13.8015
13.6196
13.4963
13.3993
-5.57753
-5.75966
-6.07744
-6.49763
-6.99384
-7.54293
-8.12892
-8.73909
-9.36203
-9.98664
-10.6011
-11.1923
-11.7491
-12.264
-12.7336
-13.1576
-13.537
-13.873
-14.1671
-14.4217
-14.6417
-14.8342
-15.0084
-15.1759
-15.3479
-15.5316
-15.7303
-15.9446
-16.1733
-16.4162
-16.6747
-16.953
-17.2563
-17.5916
-17.9668
-18.3846
-18.8417
-19.3323
-19.849
-20.3801
-20.9144
-21.4442
-21.9564
-22.4316
-22.8555
-23.2224
-23.5288
-23.7712
-23.9517
-24.0769
-24.1479
-24.1599
-24.1143
-24.0187
-23.8863
-23.7331
-23.5733
-23.4202
-23.2854
-23.1753
-23.0909
-23.03
-22.9859
-22.9479
-22.9035
-22.8424
-22.7605
-22.6613
-22.5563
-22.4433
-22.3096
-22.1572
-21.9953
-21.8333
-21.6708
-21.4957
-21.2991
-21.0847
-20.8635
-20.647
-20.4436
-20.2559
-20.0823
-19.9175
-19.7512
-19.5695
-19.3607
-19.1251
-18.8823
-18.6738
-18.5267
-18.4117
-18.2824
-18.1087
-17.8605
-17.5065
-17.0341
-16.4546
-15.7898
-15.0565
-14.2687
-13.4424
-12.6072
-11.7801
-10.9361
-10.0755
-9.22645
-8.40116
-7.59452
-6.79751
-6.00042
-5.19351
-4.36553
-3.50283
-2.59277
-1.63462
-0.643398
0.349949
1.30711
2.19758
3.00045
3.69879
4.28343
4.75646
5.12717
5.40355
5.59011
5.70608
5.78092
5.81821
5.7519
5.55467
5.31383
5.0624
4.77946
4.50558
4.30777
4.20256
4.19269
4.28671
4.48689
4.78316
5.15426
5.57463
6.03341
6.53762
7.09581
7.71613
8.40619
9.16288
9.96026
10.7502
11.4766
12.0923
12.5781
12.9543
13.2601
13.5044
13.6639
13.7221
13.6874
13.5935
13.4936
13.4291
13.415
13.4477
13.5139
13.6004
13.6903
13.7561
13.7809
13.7686
13.711
13.5949
13.4235
13.208
12.983
12.7943
12.6634
12.5661
-5.79895
-5.97015
-6.28281
-6.70463
-7.20619
-7.76765
-8.37719
-9.0234
-9.6937
-10.376
-11.0583
-11.7278
-12.3722
-12.9812
-13.5476
-14.0678
-14.5405
-14.9643
-15.3388
-15.6661
-15.9518
-16.2034
-16.4315
-16.6497
-16.871
-17.1042
-17.3539
-17.6214
-17.9064
-18.2099
-18.5349
-18.8863
-19.2687
-19.6878
-20.1484
-20.6489
-21.1829
-21.7417
-22.3138
-22.8853
-23.4438
-23.9818
-24.4884
-24.9488
-25.3534
-25.6983
-25.9772
-26.184
-26.3219
-26.4
-26.4205
-26.3788
-26.2766
-26.1221
-25.9291
-25.713
-25.4884
-25.2688
-25.0667
-24.8911
-24.7458
-24.6297
-24.536
-24.4541
-24.3711
-24.2752
-24.1613
-24.0319
-23.8962
-23.7521
-23.5877
-23.4024
-23.1997
-22.9862
-22.767
-22.5393
-22.3
-22.0535
-21.8091
-21.5782
-21.3702
-21.1906
-21.0385
-20.9057
-20.7774
-20.6346
-20.4637
-20.2669
-20.0689
-19.9139
-19.8238
-19.7604
-19.6729
-19.531
-19.3065
-18.9729
-18.5211
-17.9609
-17.3081
-16.5753
-15.7784
-14.9391
-14.0864
-13.2385
-12.3742
-11.4982
-10.6376
-9.79869
-8.97501
-8.15976
-7.34402
-6.516
-5.66292
-4.77202
-3.83166
-2.84207
-1.82053
-0.799981
0.181292
1.09361
1.91501
2.62653
3.21854
3.69385
4.06289
4.33563
4.51923
4.63009
4.68732
4.68765
4.57717
4.34873
4.09171
3.82794
3.53655
3.26979
3.0912
3.00896
3.02224
3.1368
3.35202
3.65692
4.0323
4.45742
4.92346
5.43739
6.0087
6.64405
7.34879
8.11864
8.92705
9.72401
10.452
11.0673
11.5577
11.9457
12.2686
12.5331
12.7126
12.7892
12.7726
12.6972
12.6156
12.5669
12.5652
12.6075
12.6797
12.7673
12.8548
12.9172
12.9406
12.9301
12.8739
12.7587
12.5906
12.3802
12.1574
11.9663
11.8299
11.732
-5.91076
-6.08469
-6.39889
-6.81922
-7.32662
-7.90741
-8.54967
-9.24053
-9.96666
-10.7153
-11.4735
-12.2271
-12.9621
-13.6656
-14.3269
-14.9395
-15.4994
-16.0042
-16.4528
-16.8483
-17.1978
-17.5111
-17.801
-18.0814
-18.3645
-18.6582
-18.9666
-19.2908
-19.6309
-19.9897
-20.3729
-20.7868
-21.2367
-21.7272
-22.2594
-22.8271
-23.4212
-24.031
-24.6435
-25.2457
-25.8243
-26.3707
-26.8767
-27.3304
-27.7238
-28.0522
-28.307
-28.4818
-28.582
-28.619
-28.5954
-28.5066
-28.3541
-28.1468
-27.8977
-27.6221
-27.3358
-27.0534
-26.7882
-26.5521
-26.3511
-26.1842
-26.0444
-25.921
-25.8004
-25.6699
-25.5227
-25.3603
-25.1891
-25.0059
-24.8019
-24.5766
-24.3294
-24.064
-23.7888
-23.5085
-23.2237
-22.9399
-22.6669
-22.4171
-22.2011
-22.0262
-21.8913
-21.7858
-21.6904
-21.5829
-21.4491
-21.2937
-21.1431
-21.042
-21.0078
-20.9949
-20.9472
-20.8342
-20.6313
-20.3179
-19.8885
-19.3499
-18.7127
-17.9862
-17.1861
-16.3351
-15.4626
-14.5914
-13.7073
-12.8191
-11.9523
-11.1074
-10.2763
-9.45307
-8.62809
-7.78824
-6.91992
-6.01099
-5.05024
-4.03759
-2.99237
-1.94953
-0.947978
-0.0176102
0.818921
1.54275
2.14453
2.62674
2.99997
3.27609
3.46435
3.57654
3.62157
3.59224
3.44931
3.20023
2.9336
2.66343
2.37013
2.11327
1.95287
1.89103
1.92389
2.05445
2.27874
2.58511
2.95722
3.37995
3.8473
4.36651
4.94797
5.59619
6.31324
7.09283
7.90746
8.706
9.43087
10.0425
10.5345
10.931
11.2656
11.5441
11.739
11.8326
11.8357
11.7806
11.7175
11.6839
11.693
11.7424
11.8186
11.9079
11.9963
12.0599
12.0844
12.0762
12.0236
11.9138
11.7548
11.5555
11.3405
11.151
11.0107
10.9116
-5.962
-6.1309
-6.43893
-6.86479
-7.39435
-8.01257
-8.70434
-9.45435
-10.2478
-11.0704
-11.9072
-12.7418
-13.5579
-14.3405
-15.0779
-15.7624
-16.3905
-16.9622
-17.4799
-17.9475
-18.3714
-18.7599
-19.1237
-19.4739
-19.8198
-20.1676
-20.5214
-20.8841
-21.2584
-21.6505
-22.0687
-22.5208
-23.0127
-23.5481
-24.1255
-24.7357
-25.368
-26.0103
-26.6508
-27.2773
-27.8746
-28.4316
-28.9412
-29.3936
-29.7811
-30.0985
-30.3375
-30.4926
-30.5698
-30.5804
-30.5265
-30.4021
-30.2101
-29.9606
-29.6667
-29.3436
-29.0087
-28.6779
-28.3658
-28.0855
-27.8426
-27.6348
-27.4553
-27.2937
-27.1371
-26.9725
-26.7921
-26.5963
-26.388
-26.1615
-25.9128
-25.6448
-25.3561
-25.0467
-24.7246
-24.3984
-24.0725
-23.7524
-23.4495
-23.1768
-22.9492
-22.7753
-22.6534
-22.5699
-22.5011
-22.4238
-22.3247
-22.2104
-22.1057
-22.0514
-22.0626
-22.0903
-22.072
-21.9785
-21.7905
-21.4933
-21.0843
-20.5683
-19.9512
-19.239
-18.4438
-17.5865
-16.7003
-15.8131
-14.9158
-14.0194
-13.1484
-12.3011
-11.4687
-10.6447
-9.81722
-8.97183
-8.09501
-7.17537
-6.20221
-5.17561
-4.11644
-3.06118
-2.04918
-1.10997
-0.264579
0.469775
1.08332
1.57673
1.96
2.24646
2.44658
2.56693
2.6077
2.55928
2.39613
2.13698
1.8686
1.59932
1.31071
1.06457
0.919216
0.873536
0.921334
1.06279
1.29013
1.5913
1.95328
2.36717
2.83088
3.35173
3.94008
4.59804
5.32361
6.10788
6.92223
7.71573
8.43238
9.03649
9.52681
9.92754
10.2682
10.5538
10.7589
10.8678
10.8909
10.8571
10.8124
10.7935
10.8128
10.8682
10.948
11.0397
11.1321
11.2016
11.2307
11.2261
11.1795
11.0787
10.9327
10.7486
10.5451
10.3598
10.2174
10.1163
-5.92612
-6.0944
-6.41271
-6.86653
-7.44005
-8.11433
-8.87077
-9.69128
-10.5582
-11.4539
-12.3605
-13.2602
-14.136
-14.9742
-15.7659
-16.5059
-17.192
-17.8252
-18.4088
-18.9457
-19.4394
-19.8948
-20.3188
-20.7194
-21.1047
-21.482
-21.8582
-22.2384
-22.628
-23.0352
-23.4689
-23.9369
-24.4457
-24.9989
-25.5942
-26.2223
-26.8715
-27.5292
-28.1843
-28.8256
-29.4371
-30.0041
-30.5187
-30.9731
-31.3606
-31.6759
-31.912
-32.0643
-32.1379
-32.1427
-32.0785
-31.9363
-31.7201
-31.443
-31.1191
-30.7647
-30.3996
-30.0413
-29.7047
-29.4017
-29.1354
-28.9016
-28.6937
-28.5034
-28.3188
-28.1272
-27.9197
-27.6949
-27.4539
-27.1899
-26.9015
-26.5959
-26.2736
-25.9325
-25.5763
-25.2135
-24.8522
-24.5
-24.1688
-23.8735
-23.6319
-23.4545
-23.3396
-23.2703
-23.2193
-23.1642
-23.0949
-23.0185
-22.9554
-22.9361
-22.9749
-23.0265
-23.0226
-22.9353
-22.7522
-22.4647
-22.0717
-21.577
-20.9829
-20.2909
-19.5086
-18.6545
-17.7655
-16.8733
-15.9724
-15.0741
-14.2032
-13.3574
-12.528
-11.7071
-10.88
-10.0315
-9.14934
-8.22401
-7.2456
-6.215
-5.15442
-4.10046
-3.09225
-2.15762
-1.31323
-0.573078
0.0520422
0.559976
0.959191
1.26315
1.48186
1.61756
1.66423
1.60961
1.43983
1.18206
0.919327
0.658573
0.380583
0.144334
0.00980107
-0.0245005
0.0326493
0.179214
0.403912
0.694217
1.04067
1.44041
1.89632
2.41568
3.0073
3.67041
4.39894
5.18133
5.98813
6.76973
7.47316
8.06652
8.55203
8.95299
9.29375
9.5796
9.79004
9.91191
9.95453
9.94182
9.91496
9.91017
9.93993
10.0015
10.0852
10.1807
10.2791
10.3582
10.3959
10.3974
10.3591
10.2703
10.1391
9.97159
9.78076
9.60107
9.4584
9.3556
-5.78556
-5.96733
-6.31525
-6.81301
-7.442
-8.17969
-9.00434
-9.89471
-10.8295
-11.7876
-12.7493
-13.6971
-14.6168
-15.4983
-16.3355
-17.1242
-17.8608
-18.5432
-19.1721
-19.7495
-20.2791
-20.7667
-21.2189
-21.6428
-22.0458
-22.4367
-22.8239
-23.2133
-23.6106
-24.0236
-24.4601
-24.9272
-25.4313
-25.977
-26.5639
-27.1847
-27.8286
-28.4833
-29.1367
-29.7791
-30.3972
-30.9729
-31.494
-31.9539
-32.3472
-32.6694
-32.9151
-33.0807
-33.1693
-33.1901
-33.1409
-33.0065
-32.7879
-32.5019
-32.1668
-31.8017
-31.4283
-31.0649
-30.7256
-30.4202
-30.1489
-29.9062
-29.6857
-29.4809
-29.2813
-29.0747
-28.8521
-28.6103
-28.3478
-28.0586
-27.7449
-27.4168
-27.0754
-26.7181
-26.3433
-25.9563
-25.5682
-25.1899
-24.8341
-24.5179
-24.2599
-24.0741
-23.9582
-23.8929
-23.8493
-23.8064
-23.7588
-23.7128
-23.6827
-23.6851
-23.7313
-23.7855
-23.779
-23.6836
-23.494
-23.2072
-22.8236
-22.3451
-21.7718
-21.1022
-20.3408
-19.5041
-18.6273
-17.7425
-16.8481
-15.9562
-15.0928
-14.2553
-13.4339
-12.6188
-11.7933
-10.9422
-10.0561
-9.12853
-8.15117
-7.12631
-6.07672
-5.03833
-4.04923
-3.13409
-2.30291
-1.56457
-0.930454
-0.406092
0.0141591
0.341991
0.585455
0.743586
0.807259
0.760209
0.597926
0.353045
0.101771
-0.143319
-0.40535
-0.632933
-0.761292
-0.789242
-0.729112
-0.583641
-0.366458
-0.0914733
0.235366
0.616755
1.06111
1.57576
2.16646
2.8289
3.55354
4.32672
5.11865
5.882
6.56781
7.14771
7.62566
8.02267
8.35786
8.63813
8.84975
8.98246
9.04348
9.05117
9.04107
9.04938
9.08919
9.15731
9.24589
9.347
9.45333
9.54416
9.59378
9.60426
9.57671
9.50207
9.38633
9.23434
9.05506
8.88068
8.73975
8.6366
-5.51125
-5.71054
-6.08933
-6.62972
-7.31098
-8.10659
-8.99121
-9.94094
-10.9324
-11.9438
-12.9561
-13.952
-14.9162
-15.8368
-16.7068
-17.5226
-18.2809
-18.9795
-19.6186
-20.2022
-20.7372
-21.2317
-21.6921
-22.1241
-22.5346
-22.9323
-23.3259
-23.7211
-24.123
-24.5372
-24.9683
-25.4215
-25.9028
-26.4186
-26.9725
-27.5625
-28.1814
-28.8174
-29.4566
-30.0882
-30.7024
-31.2822
-31.8113
-32.2811
-32.6858
-33.0228
-33.2899
-33.4844
-33.6075
-33.6649
-33.6528
-33.552
-33.3581
-33.0881
-32.7648
-32.4119
-32.0531
-31.7066
-31.3849
-31.0955
-30.837
-30.6032
-30.3879
-30.1853
-29.9864
-29.7804
-29.5581
-29.3143
-29.0461
-28.7489
-28.4278
-28.0943
-27.7498
-27.3909
-27.014
-26.6197
-26.2171
-25.8193
-25.442
-25.1048
-24.8286
-24.6296
-24.5052
-24.4345
-24.3895
-24.351
-24.3162
-24.2892
-24.2776
-24.287
-24.3215
-24.3556
-24.3287
-24.2119
-24.0045
-23.7079
-23.3241
-22.8533
-22.2954
-21.6495
-20.9178
-20.1127
-19.2625
-18.3973
-17.52
-16.6446
-15.7979
-14.9771
-14.1704
-13.3652
-12.5432
-11.6903
-10.8009
-9.87316
-8.90168
-7.89067
-6.86349
-5.85485
-4.89954
-4.01731
-3.21057
-2.48219
-1.84324
-1.3023
-0.857751
-0.501472
-0.228004
-0.0407871
0.0500625
0.0239653
-0.117389
-0.339655
-0.573995
-0.797901
-1.03984
-1.25875
-1.38532
-1.41232
-1.35541
-1.21738
-1.0121
-0.755527
-0.451186
-0.0910743
0.338376
0.84455
1.42939
2.08472
2.7982
3.55461
4.32479
5.06473
5.72958
6.29361
6.76096
7.14953
7.47409
7.74401
7.95332
8.09467
8.17258
8.19949
8.20487
8.22464
8.27317
8.34766
8.4426
8.55202
8.66845
8.77207
8.83537
8.85702
8.84181
8.7824
8.68143
8.54262
8.3728
8.20277
8.06478
7.96308
-5.00507
-5.22243
-5.63133
-6.212
-6.94038
-7.78728
-8.7254
-9.72996
-10.7774
-11.8445
-12.9097
-13.9521
-14.9516
-15.8913
-16.7634
-17.5682
-18.3084
-18.9869
-19.608
-20.1784
-20.7061
-21.1981
-21.6591
-22.0936
-22.5079
-22.9104
-23.3089
-23.7084
-24.1124
-24.5243
-24.9456
-25.3793
-25.8309
-26.3079
-26.8169
-27.3611
-27.9391
-28.5425
-29.1558
-29.7649
-30.361
-30.9312
-31.4599
-31.9378
-32.3595
-32.7225
-33.0258
-33.2664
-33.4419
-33.5532
-33.5956
-33.5507
-33.4106
-33.1887
-32.9072
-32.5929
-32.2738
-31.968
-31.6858
-31.4322
-31.2058
-31.0003
-30.8091
-30.6269
-30.4455
-30.2553
-30.0467
-29.8129
-29.5503
-29.2574
-28.9425
-28.6174
-28.2843
-27.9414
-27.5811
-27.1966
-26.7937
-26.3865
-25.9928
-25.6349
-25.3376
-25.1177
-24.9741
-24.8886
-24.8358
-24.7968
-24.7668
-24.7458
-24.7359
-24.7365
-24.7439
-24.7403
-24.6781
-24.529
-24.2937
-23.9756
-23.5789
-23.1057
-22.5577
-21.9361
-21.2408
-20.4774
-19.6671
-18.8344
-17.9854
-17.1364
-16.3149
-15.5185
-14.7326
-13.941
-13.1244
-12.2705
-11.3788
-10.4534
-9.49383
-8.50642
-7.51456
-6.55046
-5.64341
-4.80615
-4.03314
-3.32161
-2.68183
-2.12479
-1.6538
-1.26582
-0.958233
-0.736467
-0.611294
-0.604716
-0.712967
-0.903589
-1.11335
-1.31341
-1.53083