/*--------------------------------*- C++ -*----------------------------------*\
  =========                 |
  \\      /  F ield         | OpenFOAM: The Open Source CFD Toolbox
   \\    /   O peration     | Website:  https://openfoam.org
    \\  /    A nd           | Version:  6
     \\/     M anipulation  |
\*---------------------------------------------------------------------------*/
FoamFile
{
    version     2.0;
    format      ascii;
    class       volScalarField;
    location    "0.35";
    object      pPrime2Mean;
}
// * * * * * * * * * * * * * * * * * * * * * * * * * * * * * * * * * * * * * //

dimensions      [0 4 -4 0 0 0 0];

internalField   nonuniform List<scalar> 
12225
(
1.44778e+06
1.4256e+06
1.4033e+06
1.38144e+06
1.36017e+06
1.33951e+06
1.31948e+06
1.30005e+06
1.28119e+06
1.26285e+06
1.24497e+06
1.22748e+06
1.21028e+06
1.19326e+06
1.17622e+06
1.1589e+06
1.14078e+06
1.1206e+06
1.44783e+06
1.42564e+06
1.40333e+06
1.38147e+06
1.36019e+06
1.33954e+06
1.31951e+06
1.30008e+06
1.28122e+06
1.26288e+06
1.24501e+06
1.22754e+06
1.21036e+06
1.19336e+06
1.17637e+06
1.15914e+06
1.14124e+06
1.12178e+06
1.44791e+06
1.42571e+06
1.4034e+06
1.38152e+06
1.36025e+06
1.33959e+06
1.31956e+06
1.30013e+06
1.28128e+06
1.26296e+06
1.24511e+06
1.22766e+06
1.21052e+06
1.19358e+06
1.17669e+06
1.15965e+06
1.14216e+06
1.12387e+06
1.44806e+06
1.42584e+06
1.4035e+06
1.38162e+06
1.36033e+06
1.33968e+06
1.31965e+06
1.30023e+06
1.28139e+06
1.26309e+06
1.24527e+06
1.22786e+06
1.21078e+06
1.19394e+06
1.17721e+06
1.16044e+06
1.1435e+06
1.12638e+06
1.44829e+06
1.42603e+06
1.40366e+06
1.38176e+06
1.36046e+06
1.3398e+06
1.31978e+06
1.30037e+06
1.28156e+06
1.26328e+06
1.2455e+06
1.22815e+06
1.21116e+06
1.19445e+06
1.17793e+06
1.16151e+06
1.14517e+06
1.1291e+06
1.44864e+06
1.42629e+06
1.40388e+06
1.38195e+06
1.36064e+06
1.33998e+06
1.31996e+06
1.30057e+06
1.28178e+06
1.26355e+06
1.24582e+06
1.22855e+06
1.21167e+06
1.19513e+06
1.17885e+06
1.16283e+06
1.1471e+06
1.13192e+06
1.44905e+06
1.42663e+06
1.40417e+06
1.3822e+06
1.36087e+06
1.34021e+06
1.3202e+06
1.30083e+06
1.28207e+06
1.26389e+06
1.24623e+06
1.22906e+06
1.21232e+06
1.19597e+06
1.17999e+06
1.16438e+06
1.14923e+06
1.1348e+06
1.44961e+06
1.42707e+06
1.40453e+06
1.38253e+06
1.36118e+06
1.3405e+06
1.3205e+06
1.30116e+06
1.28244e+06
1.26432e+06
1.24675e+06
1.2297e+06
1.21312e+06
1.197e+06
1.18132e+06
1.16612e+06
1.15151e+06
1.1377e+06
1.4503e+06
1.42763e+06
1.405e+06
1.38293e+06
1.36155e+06
1.34087e+06
1.32088e+06
1.30157e+06
1.28291e+06
1.26486e+06
1.24739e+06
1.23047e+06
1.21408e+06
1.1982e+06
1.18284e+06
1.16804e+06
1.15392e+06
1.14061e+06
1.45117e+06
1.4283e+06
1.40556e+06
1.38343e+06
1.36202e+06
1.34132e+06
1.32135e+06
1.30207e+06
1.28346e+06
1.2655e+06
1.24815e+06
1.23138e+06
1.21519e+06
1.19956e+06
1.18452e+06
1.17011e+06
1.15641e+06
1.14354e+06
1.45215e+06
1.42911e+06
1.40625e+06
1.38404e+06
1.36257e+06
1.34187e+06
1.32191e+06
1.30267e+06
1.28413e+06
1.26626e+06
1.24904e+06
1.23244e+06
1.21645e+06
1.20108e+06
1.18635e+06
1.1723e+06
1.15898e+06
1.14648e+06
1.45315e+06
1.43e+06
1.407e+06
1.3847e+06
1.36318e+06
1.34246e+06
1.32251e+06
1.30332e+06
1.28484e+06
1.26707e+06
1.24998e+06
1.23354e+06
1.21775e+06
1.20262e+06
1.18815e+06
1.1744e+06
1.16139e+06
1.14917e+06
1.4544e+06
1.43101e+06
1.40785e+06
1.38544e+06
1.36387e+06
1.34313e+06
1.3232e+06
1.30404e+06
1.28564e+06
1.26797e+06
1.25101e+06
1.23473e+06
1.21914e+06
1.20424e+06
1.19003e+06
1.17654e+06
1.16381e+06
1.15185e+06
1.45609e+06
1.43237e+06
1.40898e+06
1.38643e+06
1.36478e+06
1.34401e+06
1.32409e+06
1.30499e+06
1.28667e+06
1.26913e+06
1.25232e+06
1.23623e+06
1.22086e+06
1.2062e+06
1.19226e+06
1.17906e+06
1.1666e+06
1.15489e+06
1.45841e+06
1.43416e+06
1.41046e+06
1.38771e+06
1.36595e+06
1.34514e+06
1.32524e+06
1.3062e+06
1.28799e+06
1.27058e+06
1.25395e+06
1.23807e+06
1.22294e+06
1.20855e+06
1.19489e+06
1.18197e+06
1.16978e+06
1.15831e+06
1.46139e+06
1.43647e+06
1.41234e+06
1.38934e+06
1.36745e+06
1.34659e+06
1.3267e+06
1.30774e+06
1.28965e+06
1.2724e+06
1.25596e+06
1.24031e+06
1.22543e+06
1.2113e+06
1.19792e+06
1.18527e+06
1.17333e+06
1.16209e+06
1.46513e+06
1.43933e+06
1.41466e+06
1.39135e+06
1.3693e+06
1.34838e+06
1.32851e+06
1.30963e+06
1.29167e+06
1.27459e+06
1.25836e+06
1.24294e+06
1.22832e+06
1.21445e+06
1.20134e+06
1.18894e+06
1.17724e+06
1.16621e+06
1.4693e+06
1.44253e+06
1.41728e+06
1.39365e+06
1.37143e+06
1.35047e+06
1.33064e+06
1.31185e+06
1.29404e+06
1.27714e+06
1.26112e+06
1.24594e+06
1.23156e+06
1.21794e+06
1.20506e+06
1.1929e+06
1.18141e+06
1.17057e+06
1.47344e+06
1.44549e+06
1.41974e+06
1.39591e+06
1.37363e+06
1.35269e+06
1.33295e+06
1.31429e+06
1.29665e+06
1.27994e+06
1.26413e+06
1.24917e+06
1.23502e+06
1.22162e+06
1.20896e+06
1.197e+06
1.18569e+06
1.17501e+06
1.47264e+06
1.4459e+06
1.42067e+06
1.39711e+06
1.37503e+06
1.35426e+06
1.33467e+06
1.31617e+06
1.29868e+06
1.28214e+06
1.26649e+06
1.25169e+06
1.23769e+06
1.22445e+06
1.21194e+06
1.2001e+06
1.18892e+06
1.17834e+06
1.47154e+06
1.44557e+06
1.42085e+06
1.39762e+06
1.37577e+06
1.35518e+06
1.33573e+06
1.31736e+06
1.29999e+06
1.28357e+06
1.26803e+06
1.25334e+06
1.23944e+06
1.2263e+06
1.21387e+06
1.20212e+06
1.19101e+06
1.1805e+06
1.47019e+06
1.44495e+06
1.42071e+06
1.3978e+06
1.37618e+06
1.35576e+06
1.33645e+06
1.31819e+06
1.30092e+06
1.28459e+06
1.26914e+06
1.25452e+06
1.2407e+06
1.22762e+06
1.21525e+06
1.20356e+06
1.19249e+06
1.18202e+06
1.46898e+06
1.44429e+06
1.42046e+06
1.39783e+06
1.3764e+06
1.35612e+06
1.33693e+06
1.31876e+06
1.30157e+06
1.28531e+06
1.26992e+06
1.25536e+06
1.24158e+06
1.22855e+06
1.21623e+06
1.20457e+06
1.19354e+06
1.1831e+06
1.46788e+06
1.44369e+06
1.42019e+06
1.39778e+06
1.37652e+06
1.35635e+06
1.33725e+06
1.31915e+06
1.30202e+06
1.2858e+06
1.27046e+06
1.25594e+06
1.2422e+06
1.22921e+06
1.21691e+06
1.20528e+06
1.19427e+06
1.18385e+06
1.46703e+06
1.4432e+06
1.41995e+06
1.39772e+06
1.37658e+06
1.3565e+06
1.33746e+06
1.31941e+06
1.30232e+06
1.28614e+06
1.27083e+06
1.25634e+06
1.24263e+06
1.22965e+06
1.21738e+06
1.20576e+06
1.19477e+06
1.18436e+06
1.46636e+06
1.44282e+06
1.41976e+06
1.39766e+06
1.3766e+06
1.35659e+06
1.33759e+06
1.31958e+06
1.30252e+06
1.28637e+06
1.27108e+06
1.2566e+06
1.24291e+06
1.22995e+06
1.21769e+06
1.20609e+06
1.1951e+06
1.18471e+06
1.46576e+06
1.44253e+06
1.41963e+06
1.39761e+06
1.37662e+06
1.35664e+06
1.33768e+06
1.31969e+06
1.30265e+06
1.28651e+06
1.27124e+06
1.25678e+06
1.24309e+06
1.23014e+06
1.21789e+06
1.20629e+06
1.19532e+06
1.18493e+06
1.46536e+06
1.44234e+06
1.41954e+06
1.39758e+06
1.37662e+06
1.35667e+06
1.33773e+06
1.31976e+06
1.30273e+06
1.2866e+06
1.27133e+06
1.25688e+06
1.2432e+06
1.23026e+06
1.21801e+06
1.20642e+06
1.19545e+06
1.18506e+06
1.46516e+06
1.44224e+06
1.41949e+06
1.39756e+06
1.37662e+06
1.35669e+06
1.33776e+06
1.3198e+06
1.30277e+06
1.28665e+06
1.27139e+06
1.25694e+06
1.24326e+06
1.23032e+06
1.21808e+06
1.20649e+06
1.19552e+06
1.18514e+06
1.46503e+06
1.44219e+06
1.41947e+06
1.39756e+06
1.37662e+06
1.3567e+06
1.33777e+06
1.31981e+06
1.30279e+06
1.28667e+06
1.27141e+06
1.25696e+06
1.24329e+06
1.23035e+06
1.2181e+06
1.20652e+06
1.19555e+06
1.18516e+06
947393
947318
947165
946935
946625
946236
945764
945209
944569
943842
943028
942127
941136
940057
938888
937629
936280
934841
933311
931691
929980
928180
926291
924313
922248
920095
917857
915535
913128
910639
908069
905418
902689
899881
896996
894035
891000
887892
884711
881459
878137
874745
871284
867755
864159
860498
856771
852981
849127
845212
841236
837201
833108
828959
824757
820502
816194
811836
807428
802972
798469
793918
789321
784678
779991
775258
770479
765655
760787
755875
750922
745927
740891
735813
730694
725538
720348
715128
709878
704599
699292
693957
688593
683201
677780
672332
666857
661354
655822
650263
644677
639067
633431
627771
622084
616369
610631
604870
599087
593281
587449
581593
575713
569811
563894
557967
552029
546080
540125
534164
528196
522215
516218
510200
504158
498093
492008
485905
479788
473658
467520
461376
455227
449076
442925
436777
430631
424489
418349
412209
406064
399914
393754
387582
381400
375221
369058
362914
356787
350671
344560
338448
332332
326209
320080
313948
307820
301701
295597
289513
283451
277415
271403
265415
259451
253514
247608
241737
235897
230084
224294
218527
212786
207074
201396
195754
190149
184585
179064
173592
168171
162805
157492
152235
147036
141898
136829
131837
126942
122191
947735
947659
947506
947274
946963
946571
946096
945538
944894
944164
943346
942440
941445
940360
939186
937922
936567
935121
933584
931957
930240
928432
926536
924550
922477
920318
918072
915743
913329
910833
908256
905600
902865
900051
897160
894194
891154
888040
884855
881598
878271
874874
871408
867875
864274
860608
856877
853083
849225
845305
841325
837286
833189
829036
824830
820571
816261
811900
807490
803033
798528
793975
789376
784731
780040
775304
770523
765697
760827
755914
750958
745959
740920
735839
730719
725563
720374
715154
709904
704625
699317
693982
688618
683225
677804
672354
666877
661373
655840
650282
644698
639088
633453
627792
622104
616391
610655
604896
599113
593306
587473
581614
575733
569831
563914
557985
552047
546100
540148
534190
528224
522243
516245
510225
504181
498115
492027
485923
479803
473671
467532
461387
455238
449087
442937
436789
430645
424503
418363
412222
406077
399926
393764
387592
381414
375241
369083
362940
356813
350695
344582
338467
332349
326224
320094
313962
307834
301714
295609
289523
283460
277422
271409
265421
259457
253520
247615
241744
235904
230091
224300
218532
212791
207079
201401
195759
190153
184588
179067
173594
168173
162806
157493
152236
147036
141897
136825
131831
126930
122155
948422
948345
948190
947957
947642
947246
946766
946201
945551
944813
943987
943072
942068
940973
939788
938511
937144
935685
934135
932493
930761
928939
927027
925027
922939
920765
918504
916160
913732
911223
908633
905963
903215
900389
897487
894511
891460
888336
885140
881874
878537
875130
871655
868112
864503
860828
857089
853286
849420
845491
841502
837454
833349
829189
824975
820709
816393
812027
807613
803151
798642
794085
789482
784832
780137
775396
770611
765781
760906
755988
751027
746023
740978
735893
730772
725616
720427
715207
709955
704675
699367
694030
688665
683271
677847
672395
666915
661408
655876
650319
644736
639127
633493
627831
622145
616434
610700
604943
599160
593351
587515
581654
575770
569867
563949
558019
552082
546139
540191
534236
528271
522291
516291
510268
504222
498152
492061
485952
479829
473695
467553
461407
455258
449108
442958
436812
430668
424527
418388
412247
406101
399948
393785
387615
381444
375279
369126
362985
356857
350736
344619
338502
332381
326254
320123
313990
307861
301740
295632
289543
283478
277437
271422
265432
259468
253531
247628
241757
235917
230102
224310
218542
212800
207089
201410
195767
190161
184594
179072
173598
168176
162808
157495
152237
147036
141894
136819
131819
126908
122102
949458
949380
949223
948985
948666
948263
947776
947202
946542
945792
944954
944025
943005
941894
940691
939396
938009
936530
934959
933296
931543
929698
927765
925742
923632
921435
919153
916787
914339
911808
909198
906508
903741
900897
897978
894984
891917
888778
885568
882287
878936
875516
872027
868470
864847
861159
857406
853590
849710
845769
841767
837706
833589
829417
825192
820916
816590
812216
807795
803326
798809
794245
789636
784980
780279
775532
770741
765904
761022
756096
751127
746117
741067
735979
730856
725698
720508
715285
710033
704750
699439
694100
688732
683335
677908
672453
666970
661463
655931
650374
644792
639183
633549
627889
622205
616498
610766
605009
599225
593413
587574
581709
575822
569917
563997
558068
552133
546194
540250
534298
528334
522353
516351
510326
504275
498201
492105
485991
479864
473726
467582
461434
455285
449135
442987
436841
430699
424559
418421
412281
406135
399981
393819
387654
381490
375332
369183
363044
356915
350791
344671
338550
332425
326296
320163
314031
307900
301777
295666
289573
283503
277459
271442
265450
259484
253548
247645
241775
235933
230117
224324
218555
212814
207102
201423
195779
190171
184603
179079
173603
168180
162812
157498
152239
147035
141890
136810
131803
126878
122043
950850
950769
950608
950366
950039
949628
949130
948544
947869
947103
946246
945298
944256
943122
941895
940575
939161
937654
936055
934364
932581
930708
928745
926693
924554
922328
920017
917623
915147
912589
909951
907235
904443
901574
898631
895615
892526
889366
886136
882836
879466
876028
872520
868946
865304
861598
857828
853993
850096
846137
842118
838040
833907
829720
825481
821191
816853
812467
808034
803553
799026
794454
789835
785171
780462
775708
770908
766062
761171
756236
751260
746243
741187
736095
730968
725807
720614
715389
710134
704848
699534
694190
688818
683417
677986
672528
667044
661535
656002
650446
644863
639255
633622
627965
622284
616579
610849
605092
599306
593491
587648
581780
575889
569980
564059
558131
552200
546264
540323
534373
528410
522429
516425
510396
504340
498261
492159
486040
479907
473766
467619
461469
455318
449168
443021
436876
430736
424599
418463
412324
406178
400024
393866
387707
381549
375396
369251
363114
356984
350858
344734
338608
332480
326348
320214
314080
307949
301823
295708
289610
283536
277488
271467
265473
259506
253571
247668
241796
235953
230135
224341
218572
212830
207118
201438
195793
190184
184615
179089
173611
168186
162817
157502
152241
147035
141886
136801
131786
126846
121984
952606
952522
952355
952105
951769
951345
950833
950230
949535
948748
947868
946893
945825
944661
943403
942050
940603
939062
937427
935699
933880
931970
929969
927881
925705
923443
921097
918667
916156
913564
910893
908144
905320
902420
899448
896403
893287
890100
886844
883520
880126
876664
873133
869535
865871
862143
858350
854493
850574
846593
842552
838454
834301
830095
825838
821531
817176
812774
808326
803831
799292
794707
790077
785403
780684
775919
771109
766254
761353
756409
751425
746402
741340
736242
731109
725943
720745
715516
710256
704966
699647
694298
688921
683515
678080
672619
667133
661623
656090
650533
644950
639343
633711
628057
622379
616676
610946
605188
599401
593583
587736
581863
575969
570057
564136
558210
552280
546348
540409
534461
528498
522515
516509
510476
504416
498330
492222
486096
479958
473812
467661
461509
455357
449207
443060
436917
430779
424644
418511
412374
406230
400079
393926
387771
381618
375469
369328
363192
357061
350933
344805
338675
332543
326408
320273
314138
308005
301877
295758
289655
283576
277523
271498
265501
259534
253598
247694
241821
235976
230156
224360
218590
212848
207136
201455
195809
190199
184629
179101
173621
168195
162825
157508
152245
147035
141883
136792
131768
126813
121926
954737
954648
954475
954214
953865
953425
952893
952267
951548
950733
949823
948816
947713
946513
945217
943824
942335
940752
939074
937302
935438
933483
931439
929306
927086
924781
922392
919920
917367
914734
912023
909235
906372
903435
900426
897346
894197
890978
887690
884335
880912
877421
873862
870237
866546
862790
858970
855087
851141
847133
843067
838944
834767
830538
826259
821931
817555
813134
808668
804157
799602
795003
790361
785674
780942
776166
771345
766479
761570
756618
751625
746594
741524
736417
731276
726103
720898
715662
710396
705100
699775
694421
689038
683627
678188
672724
667236
661724
656191
650633
645050
639443
633814
628162
622486
616784
611054
605296
599506
593686
587836
581960
576062
570148
564226
558301
552373
546441
540505
534558
528594
522610
516601
510564
504499
498408
492294
486161
480017
473866
467711
461556
455402
449251
443104
436963
430827
424695
418564
412430
406290
400143
393995
387845
381695
375550
369411
363275
357143
351012
344880
338746
332610
326473
320336
314200
308066
301935
295813
289706
283620
277562
271533
265534
259566
253629
247724
241849
236001
230179
224382
218611
212869
207156
201475
195827
190216
184645
179115
173634
168207
162835
157516
152250
147037
141880
136783
131749
126780
121872
957258
957163
956980
956705
956338
955877
955320
954666
953915
953065
952117
951071
949926
948682
947339
945898
944361
942727
940998
939174
937258
935251
933155
930970
928699
926342
923903
921381
918779
916098
913339
910505
907597
904617
901565
898444
895255
891998
888674
885283
881825
878300
874709
871051
867328
863541
859689
855774
851797
847758
843662
839509
835304
831048
826742
822389
817990
813546
809059
804529
799957
795342
790684
785982
781237
776448
771616
766741
761822
756860
751858
746816
741736
736620
731469
726285
721071
715827
710552
705248
699915
694555
689166
683750
678307
672840
667349
661836
656301
650743
645160
639555
633927
628277
622602
616901
611171
605411
599620
593798
587946
582067
576166
570249
564326
558400
552472
546541
540605
534659
528696
522710
516699
510659
504590
498493
492373
486235
480084
473926
467766
461608
455451
449300
443153
437013
430879
424750
418623
412492
406354
400213
394069
387922
381776
375634
369496
363360
357226
351092
344957
338819
332679
326540
320401
314264
308129
301996
295870
289759
283669
277606
271573
265571
259601
253663
247756
241879
236029
230205
224406
218634
212892
207178
201496
195847
190235
184663
179132
173650
168221
162847
157525
152256
147039
141877
136774
131731
126748
121822
960184
960082
959886
959594
959205
958717
958128
957439
956649
955757
954764
953669
952473
951175
949778
948281
946685
944992
943204
941320
939344
937277
935120
932875
930544
928128
925630
923050
920391
917654
914842
911954
908995
905965
902865
899698
896463
893163
889797
886365
882867
879304
875674
871979
868220
864395
860507
856556
852543
848469
844337
840151
835913
831625
827289
822907
818481
814012
809501
804949
800356
795722
791046
786329
781570
776768
771924
767037
762107
757135
752121
747067
741975
736847
731684
726490
721265
716009
710724
705410
700068
694700
689305
683883
678436
672966
667472
661957
656420
650860
645277
639673
634047
628397
622723
617021
611290
605529
599738
593915
588062
582181
576277
570358
564432
558503
552574
546644
540708
534762
528798
522812
516799
510757
504686
498585
492459
486314
480156
473993
467827
461665
455506
449353
443207
437068
430935
424809
418684
412556
406422
400285
394145
388001
381858
375717
369579
363442
357306
351170
345031
338889
332747
326606
320466
314328
308191
302056
295928
289812
283718
277651
271614
265610
259638
253699
247790
241910
236058
230232
224431
218659
212915
207202
201518
195869
190256
184682
179151
173668
168237
162860
157536
152263
147043
141875
136765
131713
126717
121774
963536
963425
963214
962901
962484
961963
961337
960606
959768
958825
957777
956624
955367
954007
952545
950982
949319
947558
945700
943748
941701
939564
937337
935022
932622
930138
927572
924927
922203
919404
916530
913583
910566
907480
904326
901106
897821
894471
891056
887577
884033
880424
876751
873014
869212
865347
861418
857426
853373
849260
845090
840866
836591
832268
827898
823483
819026
814528
809990
805412
800796
796140
791446
786712
781937
777122
772265
767365
762422
757436
752408
747341
742236
737096
731922
726716
721478
716210
710913
705587
700234
694856
689453
684026
678575
673100
667602
662084
656544
650983
645399
639794
634168
628518
622843
617140
611409
605647
599854
594031
588177
582295
576389
570468
564539
558608
552677
546746
540809
534863
528899
522912
516899
510856
504783
498679
492549
486397
480233
474064
467894
461727
455566
449412
443265
437126
430995
424869
418745
412620
406490
400356
394219
388077
381935
375795
369656
363517
357379
351240
345098
338954
332810
326668
320528
314390
308251
302114
295983
289864
283766
277696
271656
265649
259676
253735
247824
241942
236087
230259
224457
218683
212939
207225
201541
195891
190277
184703
179172
173687
168255
162875
157547
152271
147046
141873
136755
131693
126686
121729
967341
967218
966989
966650
966202
965642
964971
964188
963295
962291
961178
959957
958629
957196
955658
954018
952276
950435
948497
946463
944335
942116
939808
937414
934935
932374
929733
927013
924217
921346
918403
915389
912306
909156
905940
902660
899316
895908
892437
888903
885307
881647
877925
874140
870291
866380
862406
858371
854276
850121
845910
841646
837332
832971
828564
824113
819622
815092
810523
805917
801274
796596
791880
787128
782337
777505
772632
767717
762758
757757
752715
747634
742516
737364
732178
726960
721710
716428
711117
705778
700413
695024
689612
684178
678721
673241
667739
662216
656673
651107
645521
639915
634287
628636
622959
617254
611521
605758
599964
594140
588286
582403
576497
570575
564645
558711
552778
546844
540906
534959
528994
523007
516994
510950
504876
498770
492636
486480
480311
474137
467964
461794
455631
449474
443326
437186
431054
424929
418806
412682
406554
400424
394288
388147
382005
375863
369722
363582
357442
351300
345157
339011
332866
326724
320584
314445
308305
302166
296032
289911
283811
277738
271695
265686
259712
253769
247857
241973
236116
230286
224483
218708
212963
207249
201564
195913
190299
184724
179192
173707
168272
162890
157559
152279
147049
141870
136744
131673
126655
121684
971632
971497
971245
970876
970389
969783
969058
968216
967257
966182
964993
963692
962281
960761
959134
957403
955568
953633
951600
949472
947250
944939
942539
940054
937485
934836
932107
929302
926422
923469
920447
917356
914198
910976
907689
904340
900928
897456
893922
890328
886672
882956
879179
875340
871440
867479
863457
859375
855235
851036
846783
842477
838123
833721
829276
824788
820261
815696
811094
806458
801787
797083
792345
787572
782762
777911
773020
768086
763110
758092
753034
747939
742809
737646
732449
727219
721956
716662
711336
705983
700604
695203
689781
684339
678875
673389
667881
662352
656803
651233
645643
640033
634402
628747
623067
617359
611623
605857
600061
594237
588383
582502
576596
570675
564743
558808
552872
546936
540996
535046
529081
523093
517079
511036
504961
498853
492716
486558
480386
474210
468035
461864
455698
449540
443389
437247
431113
424985
418862
412738
406613
400484
394348
388206
382062
375919
369775
363633
357491
351347
345203
339057
332912
326770
320631
314491
308350
302209
296075
289952
283850
277775
271731
265721
259745
253801
247888
242003
236144
230312
224507
218731
212986
207270
201586
195934
190319
184744
179212
173725
168289
162904
157569
152285
147050
141864
136731
131651
126622
121640
976456
976305
976027
975622
975088
974428
973640
972727
971690
970531
969252
967856
966345
964721
962987
961147
959202
957157
955015
952777
950447
948028
945522
942931
940258
937506
934677
931773
928797
925751
922639
919460
916218
912913
909546
906120
902634
899090
895487
891826
888106
884328
880490
876594
872638
868624
864551
860420
856232
851988
847691
843343
838947
834506
830021
825495
820930
816330
811695
807027
802327
797596
792833
788037
783204
778333
773420
768466
763471
758436
753363
748255
743113
737938
732731
727490
722215
716907
711568
706199
700807
695393
689959
684507
679035
673542
668027
662491
656935
651359
645762
640147
634510
628850
623165
617453
611713
605943
600144
594319
588466
582586
576684
570764
564833
558896
552958
547019
541076
535124
529156
523167
517152
511108
505032
498924
492786
486627
480455
474280
468105
461934
455767
449605
443452
437306
431168
425037
418911
412787
406663
400534
394397
388253
382106
375959
369813
363668
357524
351380
345235
339090
332946
326806
320667
314527
308385
302243
296108
289985
283883
277807
271762
265751
259774
253829
247916
242029
236170
230336
224530
218753
213006
207290
201605
195953
190338
184763
179230
173742
168304
162916
157577
152288
147048
141856
136715
131627
126588
121596
981868
981698
981389
980940
980352
979625
978761
977762
976630
975368
973978
972466
970833
969084
967222
965253
963178
961004
958732
956366
953909
951364
948733
946020
943228
940359
937416
934401
931317
928166
924952
921675
918338
914942
911487
907976
904409
900786
897108
893374
889584
885739
881837
877879
873865
869795
865668
861486
857249
852959
848618
844228
839791
835310
830786
826222
821620
816984
812316
807615
802885
798126
793337
788515
783658
778762
773827
768852
763837
758785
753697
748575
743421
738236
733019
727767
722481
717160
711807
706424
701016
695589
690144
684681
679200
673697
668174
662630
657066
651483
645879
640256
634612
628946
623254
617536
611790
606015
600213
594386
588533
582656
576757
570840
564910
558972
553032
547091
541145
535190
529219
523227
517210
511164
505088
498978
492841
486683
480514
474342
468171
462001
455833
449668
443511
437360
431217
425081
418952
412826
406700
400570
394431
388284
382134
375984
369834
363687
357541
351396
345252
339109
332967
326829
320691
314550
308408
302266
296131
290009
283908
277833
271788
265776
259798
253853
247939
242052
236192
230358
224551
218772
213024
207307
201622
195969
190354
184779
179245
173757
168316
162925
157582
152289
147043
141845
136697
131600
126552
121551
987940
987747
987398
986895
986237
985426
984465
983356
982103
980711
979184
977529
975748
973849
971834
969711
967482
965153
962727
960210
957605
954916
952145
949295
946369
943369
940299
937161
933958
930691
927364
923979
920538
917041
913491
909888
906232
902525
898765
894954
891090
887174
883205
879181
875105
870975
866793
862558
858272
853936
849551
845120
840643
836122
831559
826958
822321
817651
812949
808216
803456
798667
793849
788999
784116
779196
774237
769239
764205
759134
754030
748894
743729
738533
733306
728045
722748
717415
712048
706651
701229
695788
690331
684857
679365
673854
668323
662770
657197
651604
645992
640360
634708
629033
623333
617607
611855
606074
600268
594438
588585
582710
576814
570901
564973
559035
553094
547150
541202
535243
529268
523272
517251
511202
505124
499014
492878
486724
480561
474395
468229
462061
455893
449725
443563
437407
431259
425117
418982
412853
406724
400591
394449
388299
382145
375991
369839
363689
357542
351397
345254
339113
332975
326838
320701
314561
308418
302278
296144
290025
283926
277853
271809
265796
259818
253873
247959
242072
236211
230376
224568
218788
213039
207322
201636
195983
190368
184792
179258
173768
168325
162930
157584
152285
147034
141831
136676
131571
126515
121506
994972
994747
994345
993765
993010
992083
990989
989733
988321
986760
985058
983221
981255
979167
976962
974647
972228
969711
967102
964407
961628
958771
955838
952831
949753
946606
943392
940116
936779
933383
929932
926426
922869
919262
915605
911899
908146
904346
900498
896602
892658
888665
884621
880527
876383
872191
867949
863660
859322
854938
850508
846033
841515
836955
832354
827716
823044
818339
813603
808839
804046
799225
794377
789498
784586
779639
774655
769635
764579
759489
754368
749217
744038
738831
733594
728323
723015
717671
712291
706881
701445
695991
690521
685036
679534
674014
668474
662912
657328
651724
646102
640460
634798
629113
623403
617669
611909
606122
600310
594477
588624
582750
576857
570947
565022
559085
553143
547197
541245
535282
529302
523300
517274
511221
505140
499031
492898
486750
480595
474437
468277
462113
455944
449774
443607
437446
431291
425143
419003
412867
406734
400597
394452
388298
382141
375984
369829
363676
357528
351383
345242
339104
332968
326834
320697
314558
308417
302278
296148
290033
283938
277867
271824
265813
259834
253889
247975
242088
236227
230392
224583
218802
213052
207334
201647
195995
190380
184803
179268
173776
168331
162933
157583
152279
147023
141813
136652
131540
126477
121461
1.00276e+06
1.00249e+06
1.00201e+06
1.00133e+06
1.00044e+06
999358
998088
996641
995026
993253
991333
989273
987082
984766
982334
979796
977158
974429
971616
968724
965757
962718
959611
956436
953196
949893
946530
943109
939634
936105
932525
928895
925218
921494
917726
913914
910059
906162
902222
898239
894211
890138
886017
881850
877638
873381
869080
864735
860346
855914
851439
846921
842362
837763
833127
828454
823749
819011
814244
809448
804624
799772
794892
789983
785043
780069
775061
770017
764940
759831
754692
749525
744332
739113
733865
728584
723266
717911
712521
707099
701652
696186
690704
685208
679697
674167
668618
663045
657450
651835
646201
640548
634875
629180
623461
617717
611949
606155
600338
594501
588647
582774
576883
570976
565052
559117
553174
547225
541269
535300
529315
523307
517275
511217
505134
499027
492899
486758
480612
474464
468310
462149
455981
449809
443639
437473
431312
425158
419010
412868
406728
400586
394438
388282
382122
375961
369803
363649
357500
351356
345217
339082
332949
326815
320680
314541
308403
302268
296143
290033
283943
277876
271835
265824
259846
253901
247986
242100
236239
230403
224594
218812
213062
207343
201656
196004
190388
184811
179275
173782
168334
162933
157578
152270
147009
141794
136626
131508
126439
121416
1.01061e+06
1.01029e+06
1.00972e+06
1.0089e+06
1.00785e+06
1.00658e+06
1.0051e+06
1.00343e+06
1.00158e+06
999565
997399
995092
992655
990097
987428
984661
981803
978864
975850
972768
969619
966407
963132
959798
956405
952956
949452
945895
942290
938636
934935
931189
927400
923567
919694
915782
911832
907843
903816
899748
895640
891490
887298
883063
878786
874469
870112
865714
861277
856800
852282
847724
843128
838494
833825
829122
824387
819621
814826
810001
805149
800268
795359
790422
785455
780457
775426
770361
765265
760139
754983
749802
744595
739362
734103
728811
723483
718119
712719
707290
701835
696361
690870
685365
679843
674303
668743
663160
657554
651927
646282
640618
634936
629231
623503
617751
611975
606176
600354
594513
588657
582783
576893
570987
565065
559130
553186
547235
541273
535299
529307
523293
517256
511196
505112
499007
492884
486751
480614
474474
468327
462169
456002
449830
443657
437487
431322
425161
419007
412858
406712
400564
394412
388254
382093
375930
369769
363614
357465
351322
345185
339051
332919
326787
320652
314516
308381
302251
296131
290027
283942
277879
271842
265833
259855
253910
247995
242108
236247
230411
224602
218821
213070
207351
201664
196012
190396
184818
179281
173786
168336
162932
157573
152260
146994
141774
136602
131478
126403
121376
1.01849e+06
1.01811e+06
1.01742e+06
1.01644e+06
1.01518e+06
1.01368e+06
1.01195e+06
1.01002e+06
1.0079e+06
1.00561e+06
1.00318e+06