/*--------------------------------*- C++ -*----------------------------------*\
  =========                 |
  \\      /  F ield         | OpenFOAM: The Open Source CFD Toolbox
   \\    /   O peration     | Website:  https://openfoam.org
    \\  /    A nd           | Version:  6
     \\/     M anipulation  |
\*---------------------------------------------------------------------------*/
FoamFile
{
    version     2.0;
    format      ascii;
    class       volScalarField;
    location    "0.35";
    object      s_0;
}
// * * * * * * * * * * * * * * * * * * * * * * * * * * * * * * * * * * * * * //

dimensions      [0 0 0 0 0 0 0];

internalField   nonuniform List<scalar> 
12225
(
1
1
1
1
1
1
1
1
1
1
1
1
1
1
1
1
1
1
1
1
1
1
1
1
1
1
1
1
1
1
1
1
1
1
1
1
1
1
1
1
1
1
1
1
1
1
1
1
1
1
1
1
1
1
1
1
1
1
1
1
1
1
1
1
1
1
1
1
1
1
1
1
1
1
1
1
1
1
1
1
1
1
1
1
1
1
1
1
1
1
1
1
1
1
1
1
1
1
1
1
1
1
1
1
1
1
1
1
1
1
1
1
1
1
1
1
1
1
1
1
1
1
1
1
1
1
1
1
1
1
1
1
1
1
1
1
1
1
1
1
1
1
1
1
1
1
1
1
1
1
1
1
1
1
1
1
1
1
1
1
1
1
1
1
1
1
1
1
1
1
1
1
1
1
1
1
1
1
1
1
1
1
1
1
1
1
1
1
1
1
1
1
1
1
1
1
1
1
1
1
1
1
1
1
1
1
1
1
1
1
1
1
1
1
1
1
1
1
1
1
1
1
1
1
1
1
1
1
1
1
1
1
1
1
1
1
1
1
1
1
1
1
1
1
1
1
1
1
1
1
1
1
1
1
1
1
1
1
1
1
1
1
1
1
1
1
1
1
1
1
1
1
1
1
1
1
1
1
1
1
1
1
1
1
1
1
1
1
1
1
1
1
1
1
1
1
1
1
1
1
1
1
1
1
1
1
1
1
1
1
1
1
1
1
1
1
1
1
1
1
1
1
1
1
1
1
1
1
1
1
1
1
1
1
1
1
1
1
1
1
1
1
1
1
1
1
1
1
1
1
1
1
1
1
1
1
1
1
1
1
1
1
1
1
1
1
1
1
1
1
1
1
1
1
1
1
1
1
1
1
1
1
1
1
1
1
1
1
1
1
1
1
1
1
1
1
1
1
1
1
1
1
1
1
1
1
1
1
1
1
1
1
1
1
1
1
1
1
1
1
1
1
1
1
1
1
1
1
1
1
1
1
1
1
1
1
1
1
1
1
1
1
1
1
1
1
1
1
1
1
1
1
1
1
1
1
1
1
1
1
1
1
1
1
1
1
1
1
1
1
1
1
1
1
1
1
1
1
1
1
1
1
1
1
1
1
1
1
1
1
1
1
1
1
1
1
1
1
1
1
1
1
1
1
1
1
1
1
1
1
1
1
1
1
1
1
1
1
1
1
1
1
1
1
1
1
1
1
1
1
1
1
1
1
1
1
1
1
1
1
0.998288
0.998354
0.998351
0.998338
0.998318
0.998303
0.998293
0.998277
0.998259
0.998252
0.998252
0.998255
0.998263
0.998275
0.998289
0.998298
0.998301
0.99831
0.998355
0.998404
0.99842
0.998412
0.998325
0.998284
0.998272
0.998039
0.998036
0.997716
0.997842
0.997753
0.997715
0.99774
0.99783
0.997976
0.998141
0.998299
0.998446
0.998576
0.998678
0.998749
0.998801
0.998841
0.998871
0.998892
0.998908
0.998922
0.998936
0.998952
0.998969
0.998993
0.999022
0.999055
0.999095
0.999135
0.999176
0.999218
0.999257
0.999296
0.999331
0.999365
0.999395
0.999423
0.999446
0.999468
0.999487
0.999505
0.999522
0.999537
0.99955
0.999561
0.99957
0.999578
0.999577
0.99957
0.999559
0.999551
0.999538
0.999524
0.999501
0.999462
0.999406
0.999258
0.998684
0.9987
0.998849
0.998882
0.99916
0.999457
0.999566
0.999544
0.999522
0.999515
0.999511
0.999509
0.999507
0.999506
0.999505
0.999504
0.999504
0.999503
0.999503
0.999503
0.999503
0.999504
0.999504
0.999505
0.999505
0.999506
0.999507
0.999508
0.999509
0.99951
0.999511
0.999512
0.999514
0.999515
0.999516
0.999518
0.99952
0.99952
0.999522
0.999523
0.999524
0.999525
0.999527
0.999528
0.999528
0.999529
0.99953
0.999531
0.999532
0.999534
0.999538
0.999542
0.999547
0.999554
0.999562
0.99957
0.999578
0.999585
0.999589
0.999592
0.999593
0.999595
0.999598
0.9996
0.999602
0.999604
0.999609
0.999614
0.999619
0.999626
0.999631
0.99964
0.999685
0.999689
0.999082
0.997399
0.997048
0.997104
0.997287
0.997433
0.997606
0.997817
0.997933
0.997973
0.997981
0.997995
0.998048
0.99821
0.998376
0.998491
0.998586
0.998675
0.998751
0.998859
0.999048
0.999276
0.99946
0.999558
0.998374
0.998388
0.998363
0.998325
0.998298
0.998273
0.99825
0.99822
0.998179
0.998131
0.998096
0.998088
0.998092
0.998108
0.998156
0.998238
0.998279
0.998295
0.998324
0.998375
0.998399
0.998399
0.998368
0.998352
0.998331
0.997925
0.9978
0.997771
0.997767
0.997762
0.99781
0.997969
0.99822
0.998569
0.99892
0.999086
0.999236
0.999402
0.999473
0.999531
0.999595
0.999623
0.999645
0.999673
0.999693
0.999707
0.999724
0.999741
0.999755
0.99977
0.999783
0.999792
0.999798
0.999804
0.999808
0.999812
0.999815
0.999818
0.999819
0.99982
0.999821
0.99982
0.999819
0.999817
0.999813
0.999809
0.999802
0.999794
0.999781
0.999765
0.99974
0.999711
0.999666
0.999629
0.999609
0.999599
0.999601
0.999612
0.999615
0.999607
0.999574
0.999465
0.998968
0.998651
0.998478
0.998544
0.999062
0.999563
0.999557
0.999525
0.999507
0.999494
0.999486
0.999481
0.999479
0.999478
0.999477
0.999478
0.99948
0.999482
0.999485
0.999487
0.99949
0.999493
0.999496
0.999499
0.999501
0.999502
0.999504
0.999505
0.999505
0.999505
0.999505
0.999506
0.999507
0.999507
0.999508
0.99951
0.999513
0.999515
0.999518
0.999521
0.999524
0.999527
0.999529
0.999532
0.999534
0.999534
0.999534
0.999534
0.999532
0.999527
0.999524
0.999522
0.999519
0.999516
0.999514
0.999512
0.999511
0.999512
0.999514
0.999517
0.999519
0.999523
0.999527
0.999532
0.999538
0.999542
0.999549
0.999557
0.999563
0.999566
0.999568
0.99957
0.999588
0.999632
0.999533
0.9992
0.998407
0.99758
0.997568
0.997963
0.998419
0.998733
0.998935
0.999011
0.998995
0.998954
0.998948
0.998935
0.998834
0.998726
0.998747
0.998926
0.999051
0.999032
0.998936
0.998953
0.999217
0.999515
0.998442
0.998408
0.998348
0.998344
0.998359
0.998354
0.998316
0.998233
0.998161
0.998093
0.998036
0.998008
0.998005
0.99801
0.998033
0.99812
0.998225
0.99827
0.998312
0.998359
0.998371
0.998331
0.998313
0.998245
0.997801
0.997816
0.997785
0.997782
0.997812
0.997928
0.998232
0.998773
0.999251
0.999464
0.999607
0.999705
0.999759
0.999812
0.999833
0.99985
0.999863
0.999868
0.999872
0.999874
0.999874
0.999875
0.999876
0.999879
0.999881
0.999884
0.999887
0.999889
0.999891
0.999894
0.999896
0.999899
0.999901
0.999904
0.999906
0.999907
0.999908
0.999909
0.99991
0.999909
0.999907
0.999904
0.999898
0.999889
0.999873
0.999845
0.999795
0.999733
0.999629
0.999561
0.999549
0.99956
0.999582
0.999585
0.99959
0.999606
0.999606
0.999574
0.999348
0.99877
0.99855
0.999084
0.999493
0.999557
0.999516
0.999486
0.999475
0.999469
0.999468
0.999468
0.999474
0.999476
0.999482
0.999486
0.999491
0.999495
0.999499
0.999503
0.999504
0.999508
0.999513
0.999516
0.999521
0.999526
0.999531
0.999536
0.999541
0.999545
0.999547
0.999547
0.999545
0.999537
0.999529
0.999523
0.99952
0.999519
0.999521
0.999525
0.999529
0.999534
0.999539
0.999544
0.999548
0.999552
0.999556
0.999562
0.999576
0.999587
0.99959
0.99959
0.999589
0.999584
0.999576
0.999566
0.999556
0.999549
0.999546
0.999546
0.999548
0.999554
0.999563
0.999572
0.99958
0.999583
0.999586
0.999594
0.999612
0.999625
0.999625
0.999621
0.999613
0.999617
0.999607
0.999562
0.999435
0.999086
0.998347
0.998248
0.998383
0.998798
0.999138
0.999373
0.999517
0.999561
0.999569
0.999571
0.999565
0.999519
0.999504
0.999519
0.99951
0.999416
0.99926
0.9992
0.999307
0.999532
0.998479
0.998397
0.998407
0.998515
0.998528
0.998471
0.998331
0.998197
0.998111
0.99804
0.997989
0.997969
0.997968
0.997974
0.998006
0.998125
0.998231
0.998276
0.99832
0.998348
0.998297
0.998244
0.998179
0.997846
0.997802
0.997809
0.997799
0.997841
0.998013
0.998433
0.999175
0.999526
0.999702
0.999797
0.999849
0.999883
0.9999
0.999914
0.99992
0.999924
0.999927
0.999928
0.999929
0.999929
0.999929
0.999929
0.999929
0.999929
0.99993
0.99993
0.99993
0.99993
0.99993
0.99993
0.999931
0.999933
0.999934
0.999936
0.999938
0.999939
0.999941
0.999943
0.999946
0.999948
0.99995
0.999953
0.999954
0.999952
0.999947
0.99993
0.999883
0.999765
0.999596
0.999523
0.999524
0.99958
0.999647
0.999639
0.999614
0.999614
0.999618
0.999604
0.999461
0.998823
0.998746
0.999472
0.999532
0.999529
0.999478
0.999465
0.999461
0.99946
0.999464
0.99947
0.999475
0.99948
0.999484
0.999487
0.999489
0.99949
0.99949
0.999489
0.999488
0.999489
0.999492
0.999498
0.999505
0.999514
0.999525
0.999535
0.999545
0.999555
0.999566
0.999577
0.99959
0.9996
0.999606
0.999596
0.999575
0.999548
0.999533
0.999526
0.999526
0.999529
0.999535
0.999541
0.999547
0.999553
0.999558
0.999566
0.999582
0.999611
0.999641
0.999663
0.999679
0.999689
0.999693
0.999692
0.999689
0.999686
0.999688
0.999695
0.999715
0.999744
0.99977
0.999789
0.999804
0.999809
0.999807
0.999803
0.999796
0.999788
0.999772
0.999756
0.999724
0.999675
0.999642
0.999621
0.999593
0.999519
0.999307
0.998907
0.99885
0.998931
0.99917
0.99942
0.999599
0.99971
0.999761
0.999779
0.999778
0.999748
0.999699
0.999682
0.999629
0.999463
0.999348
0.999325
0.999424
0.99954
0.99855
0.998441
0.998557
0.998618
0.998554
0.998331
0.99808
0.997936
0.997903
0.997891
0.997896
0.997904
0.997919
0.997945
0.998024
0.998172
0.998257
0.998299
0.998326
0.998303
0.998209
0.998143
0.997876
0.997809
0.997811
0.997823
0.997851
0.998022
0.998504
0.999319
0.999651
0.999797
0.999865
0.999897
0.999913
0.999921
0.999924
0.999927
0.999928
0.999929
0.99993
0.99993
0.99993
0.999929
0.999928
0.999927
0.999926
0.999926
0.999925
0.999924
0.999922
0.999921
0.999921
0.99992
0.999921
0.999923
0.999926
0.999928
0.999931
0.999933
0.999935
0.999938
0.999942
0.999945
0.999949
0.999954
0.999957
0.999957
0.999956
0.999948
0.999916
0.999801
0.999584
0.999481
0.999482
0.999634
0.999725
0.999724
0.999664
0.999633
0.999631
0.999619
0.999438
0.998733
0.999223
0.999525
0.999526
0.999482
0.99946
0.999455
0.999454
0.999456
0.999464
0.999469
0.999472
0.999473
0.999473
0.999466
0.999454
0.999439
0.999425
0.999413
0.999405
0.999401
0.999401
0.999409
0.999423
0.99944
0.999463
0.999486
0.999507
0.999527
0.999546
0.999565
0.999586
0.999607
0.99963
0.999647
0.999662
0.999663
0.999634
0.999592
0.999558
0.999543
0.999539
0.999541
0.999547
0.999554
0.999562
0.99957
0.999583
0.999612
0.999659
0.99971
0.999751
0.999779
0.999799
0.99982
0.999839
0.99986
0.999883
0.999907
0.999929
0.999947
0.999959
0.999967
0.999969
0.99997
0.999971
0.99997
0.999969
0.999967
0.999961
0.999951
0.999932
0.999889
0.99978
0.999693
0.999645
0.99962
0.999564
0.999391
0.999284
0.999294
0.999353
0.999485
0.999622
0.999739
0.999822
0.999865
0.999876
0.999872
0.999852
0.999818
0.99971
0.999495
0.999397
0.999395
0.999489
0.999519
0.998617
0.998503
0.998647
0.998627
0.998363
0.997989
0.997842
0.997752
0.99771
0.997723
0.997769
0.997816
0.997858
0.99794
0.998102
0.99823
0.998286
0.99831
0.998315
0.998237
0.998128
0.997901
0.997814
0.997814
0.997835
0.997866
0.997995
0.998424
0.999305
0.999687
0.99983
0.999886
0.999908
0.999916
0.999919
0.99992
0.99992
0.999917
0.999913
0.999907
0.999903
0.9999
0.999895
0.999893
0.999889
0.999887
0.999886
0.999886
0.999887
0.99989
0.999893
0.999895
0.999898
0.999899
0.999901
0.999901
0.9999
0.999899
0.999898
0.999901
0.999906
0.999909
0.999915
0.999919
0.999925
0.999934
0.999944
0.99995
0.999953
0.99995
0.999932
0.99986
0.999615
0.999442
0.999424
0.999627
0.999731
0.999751
0.999713
0.99968
0.999665
0.999609
0.999282
0.998775
0.999434
0.99953
0.999506
0.99946
0.99945
0.999448
0.999449
0.999456
0.999461
0.999462
0.999457
0.999443
0.999429
0.999407
0.999387
0.99936
0.999331
0.999304
0.999283
0.999273
0.999269
0.999276
0.999305
0.999338
0.999379
0.999423
0.999463
0.999503
0.999539
0.999557
0.999575
0.999595
0.999618
0.999643
0.999668
0.999694
0.999713
0.999716
0.999689
0.999634
0.999588
0.999566
0.999561
0.999565
0.999574
0.999582
0.999591
0.999609
0.999654
0.999722
0.999783
0.999833
0.99987
0.999897
0.999921
0.999942
0.999959
0.999973
0.999982
0.999988
0.999989
0.999989
0.999987
0.999986
0.999986
0.999986
0.999986
0.999986
0.999986
0.999986
0.999983
0.999975
0.999951
0.999884
0.999754
0.999675
0.999644
0.999575
0.999498
0.999494
0.999512
0.999567
0.999647
0.999735
0.999816
0.999875
0.999901
0.999906
0.999903
0.999884
0.999787
0.999541
0.999438
0.999446
0.99951
0.99946
0.998675
0.998528
0.998686
0.998602
0.998149
0.9979
0.997781
0.997687
0.997624
0.997635
0.997698
0.997779
0.997845
0.997974
0.998148
0.998252
0.998293
0.998307
0.998281
0.998155
0.997929
0.997823
0.997814
0.997839
0.997885
0.997977
0.998311
0.999149
0.999661
0.999832
0.99989
0.999909
0.999914
0.999915
0.999913
0.999904
0.999891
0.999878
0.99987
0.999866
0.999864
0.999863
0.999862
0.999863
0.999865
0.999868
0.999872
0.999877
0.999882
0.999888
0.999893
0.999897
0.9999
0.999902
0.999902
0.999901
0.999898
0.999893
0.999886
0.999877
0.999873
0.999874
0.999876
0.99988
0.999884
0.999892
0.9999
0.999919
0.999935
0.999941
0.999936
0.999899
0.999731
0.999425
0.999336
0.999431
0.999668
0.999735
0.999727
0.99969
0.999652
0.999509
0.999029
0.998976
0.999501
0.999526
0.999473
0.999448
0.999443
0.999443
0.999448
0.999452
0.999452
0.999441
0.999427
0.999413
0.999396
0.999366
0.999324
0.999267
0.999215
0.999167
0.99913
0.999111
0.999104
0.999104
0.999135
0.999195
0.999276
0.999357
0.999428
0.999491
0.999542
0.999575
0.999593
0.999605
0.999619
0.999637
0.999656
0.999682
0.999715
0.99974
0.999754
0.999752
0.999721
0.999657
0.999614
0.999599
0.999598
0.999602
0.999607
0.999615
0.999638
0.999702
0.99978
0.999842
0.99989
0.999925
0.999951
0.999969
0.999981
0.999989
0.999992
0.999992
0.999991
0.999987
0.999977
0.999971
0.99997
0.999972
0.999973
0.999973
0.999975
0.999977
0.999982
0.999982
0.99998
0.999968
0.999926
0.999797
0.99971
0.999645
0.999597
0.999591
0.999598
0.999632
0.999686
0.999734
0.999795
0.999852
0.999891
0.999908
0.99991
0.999901
0.999828
0.999583
0.99947
0.999481
0.999506
0.999399
0.998745
0.998567
0.998717
0.998583
0.998103
0.997885
0.997747
0.997591
0.9975
0.997501
0.997576
0.997715
0.997839
0.997995
0.99816
0.998251
0.998283
0.998279
0.998179
0.997944
0.997839
0.997821
0.997838
0.997903
0.99799
0.998228
0.998934
0.999583
0.999812
0.999885
0.999907
0.999913
0.999913
0.999909
0.999898
0.999883
0.999869
0.999863
0.999861
0.99986
0.99986
0.999862
0.999865
0.99987
0.999877
0.999887
0.999898
0.999909
0.999918
0.999926
0.99993
0.999933
0.999934
0.999934
0.999931
0.999925
0.999916
0.999902
0.999889
0.999873
0.999858
0.999847
0.999844
0.999844
0.999849
0.999855
0.999863
0.999872
0.999887
0.999914
0.999929
0.999916
0.999844
0.999511
0.999308
0.999268
0.999458
0.999658
0.9997
0.999652
0.999559
0.999209
0.999
0.999298
0.99952
0.999514
0.999455
0.99944
0.999438
0.99944
0.999443
0.999443
0.999431
0.999416
0.999405
0.999389
0.999364
0.999324
0.999273
0.999219
0.999171
0.999126
0.999083
0.999052
0.999037
0.999032
0.999034
0.999058
0.999114
0.999238
0.999364
0.99947
0.999547
0.999605
0.99965
0.999658
0.999657
0.999656
0.99966
0.999672
0.999694
0.99973
0.999758
0.999774
0.999777
0.999767
0.999717
0.999662
0.999637
0.999629
0.999628
0.999629
0.999637
0.999669
0.999755
0.999834
0.999892
0.999934
0.999962
0.999979
0.999988
0.999992
0.999992
0.999991
0.999985
0.999961
0.999928
0.999909
0.999907
0.99991
0.999912
0.999913
0.999915
0.999921
0.999931
0.999953
0.99997
0.999972
0.999966
0.999933
0.999823
0.999706
0.999651
0.999639
0.999643
0.999666
0.999715
0.999753
0.999777
0.999812
0.999858
0.999895
0.999906
0.999902
0.999845
0.999612
0.999495
0.999497
0.999485
0.999346
0.998834
0.998609
0.99874
0.998596
0.998145
0.99793
0.99769
0.997428
0.99737
0.997379
0.997447
0.99759
0.997785
0.997973
0.998125
0.998192
0.998204
0.998105
0.997937
0.99786
0.99784
0.997851
0.997922
0.998038
0.998216
0.998731
0.999449
0.999768
0.999873
0.999905
0.999913
0.999914
0.999913
0.999906
0.999893
0.999878
0.999868
0.999865
0.999864
0.999868
0.999876
0.999887
0.999903
0.999919
0.999931
0.999942
0.999948
0.999951
0.999953
0.999953
0.999954
0.999954
0.999954
0.999953
0.999952
0.99995
0.999946
0.999936
0.999915
0.999886
0.999859
0.999838
0.999828
0.999825
0.999827
0.99984
0.999851
0.999857
0.999865
0.999875
0.999899
0.999918
0.999896
0.999761
0.999358
0.999228
0.999217
0.999433
0.999533
0.999467
0.999233
0.999057
0.99904
0.999435
0.999522
0.999493
0.999443
0.999435
0.999434
0.999433
0.999433
0.999427
0.999415
0.999406
0.999399
0.999388
0.999365
0.99933
0.999292
0.999264
0.999249
0.999213
0.999136
0.999066
0.999033
0.99902
0.999016
0.999022
0.999048
0.999121
0.999297
0.99944
0.999537
0.999604
0.999665
0.999716
0.99972
0.999712
0.999695
0.999684
0.999687
0.999704
0.999741
0.999771
0.999786
0.999789
0.999784
0.999749
0.999691
0.999661
0.999648
0.999646
0.999647
0.999661
0.999719
0.999815
0.999887
0.999935
0.999965
0.999982
0.99999
0.999992
0.999992
0.999987
0.999967
0.999928
0.999891
0.999857
0.999833
0.999821
0.999809
0.999799
0.999799
0.999802
0.99981
0.99983
0.999888
0.999943
0.999958
0.999954
0.999923
0.999804
0.999702
0.99967
0.999669
0.999684
0.999731
0.999765
0.999785
0.999799
0.999826
0.999874
0.999899
0.999899
0.999855
0.99964
0.999512
0.999501
0.999459
0.99931
0.998941
0.998629
0.998775
0.998728
0.998335
0.99802
0.997592
0.997367
0.997338
0.997346
0.997398
0.997512
0.997664
0.997828
0.997934
0.997965
0.997961
0.997916
0.997886
0.997873
0.9979
0.997998
0.99818
0.998352
0.998669
0.999244
0.999693
0.999849
0.999899
0.999913
0.999916
0.999916
0.999914
0.999906
0.999894
0.999882
0.999877
0.999879
0.999892
0.999907
0.999925
0.999935
0.999944
0.99995
0.999952
0.999954
0.999954
0.999955
0.999954
0.999954
0.999954
0.999954
0.999955
0.999955
0.999955
0.999954
0.999953
0.999952
0.999946
0.999933
0.999896
0.999851
0.999829
0.999821
0.999819
0.999826
0.999845
0.999852
0.999862
0.999868
0.999874
0.999893
0.99991
0.999875
0.999645
0.999248
0.999156
0.999147
0.999192
0.999177
0.999065
0.999039
0.999157
0.99949
0.999522
0.999474
0.999436
0.999429
0.999427
0.999428
0.999425
0.999414
0.999406
0.999402
0.9994
0.999391
0.999374
0.999362
0.999363
0.999415
0.999438
0.999438
0.999328
0.999171
0.999067
0.999026
0.999014
0.999015
0.999026
0.999072
0.999223
0.999416
0.999524
0.999589
0.999653
0.999727
0.999775
0.999776
0.999759
0.999725
0.999703
0.9997
0.999712
0.99975
0.99978
0.999793
0.999795
0.99979
0.999758
0.999701
0.999671
0.999661
0.99966
0.999666
0.999698
0.999792
0.999876
0.999932
0.999965
0.999983
0.99999
0.999991
0.99999
0.999983
0.999959
0.999925
0.999891
0.999854
0.999822
0.999796
0.999778
0.999765
0.999756
0.999752
0.999751
0.999753
0.999765
0.999817
0.999911
0.999941
0.999938
0.999896
0.999769
0.999702
0.999689
0.999696
0.999735
0.999773
0.999792
0.999802
0.999817
0.999855
0.999891
0.999895
0.999863
0.999669
0.999529
0.999501
0.999432
0.999285
0.999066
0.998655
0.998787
0.99881
0.998511
0.998068
0.997552
0.997357
0.997338
0.997359
0.997437
0.99755
0.997673
0.997776
0.997843
0.997881
0.997905
0.997914
0.997933
0.998007
0.998194
0.998443
0.998595
0.998767
0.999104
0.999566
0.999806
0.999885
0.99991
0.999917
0.999918
0.999918
0.999916
0.99991
0.999902
0.999899
0.999906
0.999916
0.999931
0.99994
0.999946
0.999948
0.99995
0.999951
0.999951
0.999949
0.999947
0.999945
0.999943
0.999943
0.999944
0.999945
0.999948
0.99995
0.999952
0.999953
0.999954
0.999954
0.999953
0.999951
0.999942
0.999916
0.99986
0.999828
0.999818
0.999817
0.99983
0.999845
0.999863
0.999875
0.999874
0.999877
0.999895
0.999908
0.999859
0.999526
0.999179
0.999104
0.999086
0.99907
0.99904
0.999056
0.999329
0.999509
0.999518
0.999456
0.99943
0.999423
0.999422
0.999416
0.999409
0.999403
0.999401
0.999401
0.999401
0.999398
0.999397
0.999414
0.999462
0.999525
0.999547
0.999546
0.999498
0.999384
0.999172
0.999065
0.999021
0.999015
0.999022
0.999055
0.999181
0.999395
0.999522
0.999588
0.999645
0.999722
0.999803
0.999843
0.999843
0.999814
0.999754
0.999716
0.999709
0.999719
0.999757
0.999785
0.999795
0.999796
0.999789
0.99975
0.9997
0.999678
0.999673
0.999675
0.999694
0.999771
0.999863
0.999925
0.999962
0.999982
0.999989
0.999991
0.999989
0.999981
0.999964
0.999955
0.999937
0.999899
0.999849
0.99981
0.999783
0.999767
0.999757
0.999752
0.999746
0.999743
0.999744
0.999752
0.999796
0.999897
0.999926
0.999917
0.999845
0.999741
0.999707
0.999708
0.999735
0.999778
0.999799
0.999807
0.999819
0.999848
0.999887
0.999895
0.999871
0.999701
0.999546
0.9995
0.999407
0.999268
0.999235
0.9987
0.998789
0.998858
0.998667
0.99822
0.997601
0.997375
0.997356
0.997389
0.997486
0.997605
0.997707
0.997792
0.997857
0.997909
0.997966
0.99805
0.998223
0.998512
0.998758
0.998885
0.998979
0.999141
0.999421
0.999732
0.99986
0.999902
0.999916
0.999921
0.999923
0.999924
0.999924
0.999923
0.999922
0.999925
0.999931
0.999938
0.999944
0.999947
0.999948
0.999948
0.999947
0.999943
0.999936
0.999927
0.999921
0.999917
0.999916
0.999916
0.999919
0.999925
0.999932
0.999938
0.999944
0.999948
0.99995
0.999953
0.999954
0.999954
0.999953
0.999948
0.99993
0.999869
0.999828
0.999815
0.999811
0.999823
0.999854
0.999885
0.999903
0.999885
0.999883
0.999903
0.999913
0.999847
0.999428
0.999161
0.9991
0.999076
0.999055
0.99912
0.99942
0.999518
0.999519
0.999449
0.999423
0.999418
0.999412
0.99941
0.9994
0.999391
0.999389
0.999398
0.999406
0.999414
0.999421
0.999444
0.999497
0.999556
0.999579
0.999573
0.99955
0.999484
0.999295
0.999123
0.999044
0.999022
0.999024
0.999052
0.999168
0.999386
0.999543
0.999615
0.999656
0.999726
0.999815
0.999882
0.999903
0.999901
0.999859
0.999769
0.999722
0.999714
0.999725
0.999764
0.999788
0.999795
0.999794
0.999779
0.999731
0.999697
0.999687
0.999687
0.999697
0.999754
0.99985
0.999917
0.999958
0.99998
0.999989
0.999991
0.999988
0.999986
0.999988
0.999989
0.999988
0.999978
0.999939
0.999876
0.999829
0.999801
0.999784
0.999775
0.999769
0.999757
0.999748
0.999747
0.999754
0.999807
0.999896
0.999909
0.999886
0.999787
0.999726
0.999719
0.999735
0.999778
0.999804
0.999816
0.999825
0.999849
0.999887
0.999897
0.99988
0.999736
0.999565
0.999503
0.999386
0.999261
0.999423
0.998783
0.998755
0.998913
0.99882
0.998428
0.997811
0.997435
0.997394
0.997423
0.997539
0.997679
0.997791
0.997887
0.997991
0.998119
0.998319
0.998611
0.998891
0.999074
0.999169
0.999231
0.999297
0.999418
0.999612
0.999811
0.999885
0.99991
0.99992
0.999925
0.999928
0.999934
0.999937
0.999937
0.999937
0.999939
0.999942
0.999945
0.999946
0.999947
0.999945
0.99994
0.999928
0.999914
0.999901
0.999893
0.999888
0.999886
0.999885
0.999887
0.999892
0.9999
0.999912
0.999925
0.999936
0.999943
0.999947
0.999949
0.999951
0.999953
0.999954
0.999953
0.999949
0.999931
0.999867
0.999823
0.999808
0.999808
0.999822
0.999875
0.999917
0.999933
0.999896
0.999889
0.999914
0.999924
0.999822
0.999356
0.999164
0.999158
0.999166
0.999236
0.999457
0.999527
0.999521
0.999452
0.999422
0.999411
0.999407
0.999396
0.999383
0.999381
0.999381
0.99939
0.999405
0.999423
0.999441
0.999466
0.999499
0.999548
0.999568
0.999567
0.999556
0.999509
0.99934
0.999145
0.999054
0.999031
0.999033
0.999063
0.999186
0.999399
0.999571
0.99967
0.999711
0.999766
0.999852
0.999928
0.999959
0.99996
0.999946
0.999865
0.999761
0.999719
0.999714
0.999731
0.99977
0.999788
0.999791
0.999786
0.999756
0.999715
0.999697
0.999695
0.999701
0.999743
0.999838
0.999907
0.999952
0.999977
0.999988
0.99999
0.999992
0.999994
0.999996
0.999997
0.999997
0.999994
0.999983
0.999946
0.999896
0.999859
0.999835
0.999817
0.999806
0.999798
0.999778
0.999758
0.999756
0.999766
0.999835
0.999893
0.99989
0.999829
0.999747
0.999728
0.999736
0.999775
0.999807
0.999824
0.999835
0.999858
0.99989
0.999901
0.99989
0.999772
0.999588
0.999511
0.999369
0.999261
0.999554
0.99891
0.998745
0.998934
0.998958
0.998735
0.998233
0.997592
0.997473
0.997483
0.997612
0.997815
0.997996
0.998198
0.99851
0.998787
0.999005
0.999203
0.999331
0.999427
0.999467
0.999492
0.999531
0.999603
0.999717
0.999849
0.999898
0.999916
0.999924
0.999928
0.999933
0.999941
0.999944
0.999945
0.999945
0.999946
0.999946
0.999947
0.999946
0.999944
0.999935
0.999918
0.999902
0.99989
0.999882
0.999877
0.999875
0.999874
0.999874
0.999875
0.999879
0.999884
0.999894
0.999911
0.999928
0.99994
0.999946
0.999949
0.99995
0.99995
0.999953
0.999953
0.999952
0.999946
0.999919
0.999856
0.999816
0.999807
0.999814
0.999843
0.999911
0.999948
0.999956
0.999907
0.999898
0.999928
0.999937
0.999805
0.999304
0.999152
0.999257
0.999374
0.999493
0.999534
0.999526
0.999462
0.999425
0.99941
0.999397
0.999388
0.999374
0.999363
0.999363
0.999371
0.999394
0.999419
0.999441
0.999465
0.999492
0.99953
0.999546
0.999545
0.999531
0.999482
0.999322
0.999138
0.999055
0.999038
0.999044
0.999089
0.999251
0.999448
0.999597
0.999715
0.999786
0.99984
0.99991
0.999958
0.99998
0.999983
0.999977
0.999939
0.999821
0.999738
0.999709
0.99971
0.999736
0.999771
0.999783
0.999782
0.999766
0.999724
0.999701
0.999697
0.999702
0.999739
0.999833
0.999903
0.999947
0.999974
0.999986
0.999991
0.999995
0.999997
0.999998
0.999998
0.999998
0.999997
0.99999
0.999965
0.999921
0.999885
0.999861
0.999845
0.999833
0.999824
0.999816
0.999792
0.999767
0.999767
0.999789
0.999864
0.999881
0.999854
0.999768
0.999736
0.999738
0.999768
0.99981
0.999832
0.999844
0.99987
0.999898
0.999908
0.9999
0.99981
0.999617
0.999521
0.999369
0.999264
0.99961
0.999188
0.99875
0.998857
0.99901
0.998984
0.998709
0.998072
0.997655
0.997627
0.997777
0.998153
0.998511
0.998758
0.998985
0.999256
0.999408
0.999508
0.999594
0.999651
0.999675
0.999685
0.999698
0.999729
0.999783
0.99986
0.999903
0.999918
0.999925
0.99993
0.999937
0.999946
0.999949
0.99995
0.99995
0.999949
0.999948
0.999947
0.999944
0.999934
0.999916
0.999899
0.999887
0.999879
0.999873
0.999871
0.999869
0.999869
0.999869
0.999871
0.999874
0.999878
0.999887
0.999904
0.999923
0.999938
0.999946
0.999949
0.999949
0.999949
0.999949
0.99995
0.999951
0.999949
0.999939
0.999895
0.999839
0.999818
0.999818
0.999837
0.999882
0.999942
0.99997
0.99997
0.999918
0.999909
0.999943
0.999949
0.999796
0.999284
0.999226
0.999377
0.999496
0.999541
0.999537
0.999488
0.999436
0.999413
0.999394
0.999369
0.999357
0.999351
0.99935
0.999353
0.999367
0.9994
0.99943
0.999455
0.999476
0.999507
0.999514
0.999509
0.999484
0.999406
0.999206
0.999089
0.999049
0.999046
0.999062
0.999137
0.999344
0.999532
0.999661
0.999768
0.999862
0.999923
0.999951
0.999974
0.999989
0.999991
0.999987
0.999961
0.999859
0.999754
0.999705
0.999695
0.999701
0.999738
0.999764
0.999769
0.999761
0.999727
0.999702
0.999697
0.999702
0.999739
0.999833
0.999903
0.999946
0.999971
0.999984
0.999991
0.999996
0.999998
0.999999
0.999999
0.999999
0.999997
0.999991
0.999969
0.999927
0.999895
0.999872
0.999857
0.999846
0.999837
0.999831
0.999822
0.999795
0.999776
0.999781
0.999829
0.999867
0.999858
0.999789
0.999742
0.99974
0.999761
0.999809
0.999837
0.999854
0.999881
0.999906
0.999915
0.99991
0.999845
0.999656
0.999535
0.999372
0.999273
0.999623
0.999415
0.999015
0.998745
0.998985
0.999099
0.998999
0.99881
0.998176
0.99785
0.997867
0.998177
0.998677
0.999112
0.999378
0.999527
0.999618
0.999666
0.999718
0.999759
0.999786
0.9998
0.999807
0.999817
0.999837
0.999871
0.999902
0.999917
0.999925
0.99993
0.999937
0.999946
0.999951
0.999953
0.999953
0.999952
0.99995
0.999947
0.999942
0.999928
0.999911
0.999896
0.999885
0.999877
0.999873
0.99987
0.999868
0.999868
0.999868
0.99987
0.999873
0.999877
0.999884
0.999901
0.999922
0.999938
0.999947
0.999949
0.99995
0.999949
0.999945
0.999943
0.999944
0.999944
0.999942
0.999928
0.999884
0.999848
0.999842
0.999848
0.999871
0.999921
0.999965
0.999983
0.999979
0.999935
0.999923
0.999953
0.999963
0.999809
0.999295
0.999317
0.999463
0.999536
0.999545
0.999528
0.999467
0.999426
0.999398
0.999369
0.999342
0.999324
0.999324
0.999327
0.999334
0.99935
0.999389
0.999417
0.999442
0.999458
0.999454
0.999436
0.999381
0.999234
0.999119
0.99907
0.999057
0.999063
0.999103
0.999242
0.999451
0.999616
0.999747
0.999855
0.999938
0.99997
0.999984
0.999992
0.999996
0.999996
0.999993
0.99997
0.999873
0.999757
0.999694
0.999673
0.999672
0.999692
0.999732
0.999744
0.999743
0.999722
0.999697
0.999692
0.999699
0.999744
0.999843
0.999911
0.999949
0.999971
0.999983
0.999991
0.999995
0.999998
0.999999
0.999999
0.999999
0.999997
0.999991
0.999969
0.999928
0.999898
0.999879
0.999867
0.999858
0.999849
0.999841
0.999835
0.99982
0.999792
0.999788
0.999808
0.999853
0.999853
0.999805
0.999748
0.99974
0.999754
0.999804
0.999839
0.999862
0.999889
0.999913
0.999922
0.99992
0.999874
0.999703
0.999556
0.999384
0.999285
0.999571
0.999455
0.999402
0.998948
0.998705
0.999101
0.999155
0.999069
0.998932
0.998428
0.998115
0.998179
0.99858
0.999092
0.999444
0.999627
0.999721
0.999766
0.999796
0.99982
0.999837
0.99985
0.999857
0.999862
0.999869
0.999883
0.9999
0.999914
0.999923
0.999929
0.999936
0.999945
0.999951
0.999953
0.999954
0.999954
0.999953
0.99995
0.999944
0.99993
0.999913
0.999898
0.999887
0.99988
0.999875
0.999872
0.99987
0.99987
0.999871
0.999872
0.999876
0.999881
0.999889
0.999909
0.999932
0.999945
0.999949
0.99995
0.99995
0.999948
0.99994
0.99993
0.999925
0.999924
0.999926
0.999927
0.999917
0.999895
0.999876
0.999864
0.999867
0.999897
0.999949
0.99998
0.99999
0.999988
0.999955
0.999938
0.999959
0.999971
0.999832
0.999414
0.99941
0.999483
0.999539
0.999539
0.999522
0.99947
0.999417
0.999376
0.999344
0.999316
0.999298
0.999287
0.999288
0.999291
0.9993
0.999318
0.999337
0.999333
0.999316
0.999274
0.999195
0.999126
0.999086
0.999068
0.999072
0.999098
0.999185
0.999396
0.999566
0.99971
0.999842
0.999937
0.999975
0.999989
0.999995
0.999997
0.999999
0.999999
0.999996
0.999977
0.99989
0.999753
0.999672
0.999642
0.999637
0.999645
0.999683
0.999706
0.999707
0.999696
0.999677
0.999676
0.999691
0.999759
0.999861
0.999925
0.999959
0.999975
0.999985
0.999991
0.999995
0.999998
0.999999
0.999999
0.999999
0.999997
0.999988
0.999958
0.99992
0.999896
0.999884
0.999876
0.999871
0.999866
0.999858
0.999851
0.99984
0.99981
0.999796
0.999803
0.999839
0.999846
0.999815
0.999753
0.999739
0.999749
0.999796
0.999837
0.999867
0.999895
0.999919
0.999929
0.999928
0.999897
0.999761
0.999585
0.999408
0.99931
0.999367
0.999333
0.999431
0.999465
0.998764
0.998787
0.999168
0.999189
0.999134
0.999056
0.998703
0.998393
0.998496
0.998881
0.999371
0.999612
0.999725
0.999787
0.999826
0.999853
0.999869
0.99988
0.999885
0.999886
0.999888
0.999891
0.9999
0.99991
0.999918
0.999926
0.999933
0.999942
0.99995
0.999953
0.999954
0.999955
0.999955
0.999953
0.999949
0.999936
0.99992
0.999905
0.999894
0.999886
0.999881
0.999877
0.999875
0.999875
0.999876
0.999878
0.999883
0.999889
0.999902
0.999924
0.99994
0.999948
0.99995
0.99995
0.99995
0.999947
0.999933
0.999907
0.999888
0.999876
0.999873
0.999882
0.999902
0.999905
0.999891
0.999868
0.999859
0.999869
0.999922
0.999969
0.999989
0.999995
0.999993
0.999973
0.999954
0.999966
0.999971
0.999851
0.999507
0.999483
0.999507
0.999536
0.999535
0.999521
0.999476
0.999404
0.999357
0.999321
0.999297
0.999275
0.999257
0.999249
0.999241
0.999235
0.99923
0.999219
0.999198
0.999164
0.99913
0.999099
0.999085
0.999088
0.999109
0.999175
0.99935
0.999523
0.999681
0.999833
0.999933
0.999974