/*--------------------------------*- C++ -*----------------------------------*\
  =========                 |
  \\      /  F ield         | OpenFOAM: The Open Source CFD Toolbox
   \\    /   O peration     | Website:  https://openfoam.org
    \\  /    A nd           | Version:  6
     \\/     M anipulation  |
\*---------------------------------------------------------------------------*/
FoamFile
{
    version     2.0;
    format      ascii;
    class       volVectorField;
    location    "0.35";
    object      U;
}
// * * * * * * * * * * * * * * * * * * * * * * * * * * * * * * * * * * * * * //

dimensions      [0 1 -1 0 0 0 0];

internalField   nonuniform List<vector> 
12225
(
(9.67221 0.0203397 0)
(9.40142 0.0233329 0)
(9.2115 0.0124573 0)
(8.96987 0.0372513 0)
(8.64946 0.0713469 0)
(8.29378 0.0823571 0)
(7.96878 0.0674086 0)
(7.71176 0.0446575 0)
(7.49886 0.0357565 0)
(7.28307 0.0472095 0)
(7.0005 0.0706429 0)
(6.66161 0.0857706 0)
(6.27553 0.0905638 0)
(5.90444 0.0825422 0)
(5.52195 0.0800769 0)
(5.18026 0.0791005 0)
(4.74452 0.103975 0)
(4.41366 0.101649 0)
(9.96674 0.0100616 0)
(9.97693 0.0525678 0)
(9.96091 0.0575036 0)
(10.0429 0.0618483 0)
(10.1175 0.0721426 0)
(10.0978 0.0807843 0)
(10.0071 0.0799634 0)
(9.90416 0.0747776 0)
(9.8245 0.0741568 0)
(9.78075 0.0848201 0)
(9.75375 0.105433 0)
(9.72626 0.128086 0)
(9.6709 0.145524 0)
(9.58325 0.157333 0)
(9.4496 0.166684 0)
(9.28156 0.184848 0)
(9.06657 0.211918 0)
(8.84284 0.25271 0)
(9.94147 0.0561606 0)
(9.97383 0.0521018 0)
(9.8911 0.0308173 0)
(9.82098 0.0397787 0)
(9.84007 0.0774936 0)
(9.92489 0.110721 0)
(10.0108 0.115167 0)
(10.0459 0.0974211 0)
(10.0218 0.0791911 0)
(9.96856 0.0778417 0)
(9.92489 0.0961154 0)
(9.90994 0.124899 0)
(9.91745 0.154799 0)
(9.92584 0.182846 0)
(9.92017 0.211009 0)
(9.88762 0.245924 0)
(9.83744 0.285524 0)
(9.7711 0.332817 0)
(10.0559 0.0278234 0)
(10.0842 0.127544 0)
(10.0729 0.109729 0)
(9.96486 0.0670591 0)
(9.86123 0.0483867 0)
(9.83228 0.0515066 0)
(9.85955 0.0618674 0)
(9.89035 0.0764092 0)
(9.89798 0.0946606 0)
(9.8892 0.112074 0)
(9.8838 0.124639 0)
(9.89576 0.1323 0)
(9.92603 0.140431 0)
(9.96436 0.156319 0)
(9.99784 0.185269 0)
(10.016 0.229905 0)
(10.0182 0.2861 0)
(10.003 0.350532 0)
(9.96831 -0.00328609 0)
(9.98097 -0.0022632 0)
(10.0093 0.0445956 0)
(9.99595 0.0969934 0)
(9.93975 0.109595 0)
(9.88458 0.098107 0)
(9.86147 0.088505 0)
(9.86478 0.0897371 0)
(9.87454 0.0966617 0)
(9.87802 0.102673 0)
(9.87559 0.107496 0)
(9.87626 0.114472 0)
(9.8879 0.128309 0)
(9.91223 0.152981 0)
(9.94231 0.189982 0)
(9.9721 0.239534 0)
(9.99365 0.296995 0)
(10.0047 0.356594 0)
(10.2368 0.0671371 0)
(10.1026 0.116599 0)
(10.0664 0.083128 0)
(10.1052 0.0661393 0)
(10.1462 0.0666466 0)
(10.1491 0.0654345 0)
(10.1061 0.0568452 0)
(10.0354 0.0542499 0)
(9.9638 0.0669274 0)
(9.90644 0.0884397 0)
(9.86449 0.1067 0)
(9.83625 0.115818 0)
(9.82126 0.120459 0)
(9.82086 0.132458 0)
(9.831 0.161877 0)
(9.84816 0.212111 0)
(9.86302 0.278523 0)
(9.87348 0.350959 0)
(9.87406 0.0549124 0)
(9.87612 0.0972119 0)
(10.0235 0.0841665 0)
(10.1081 0.100303 0)
(10.1158 0.118744 0)
(10.0873 0.135995 0)
(10.04 0.150805 0)
(9.97374 0.15958 0)
(9.89329 0.161258 0)
(9.81293 0.157302 0)
(9.74583 0.150632 0)
(9.69896 0.144705 0)
(9.67291 0.14411 0)
(9.66585 0.154879 0)
(9.67498 0.181402 0)
(9.69765 0.22469 0)
(9.72847 0.280823 0)
(9.7661 0.344874 0)
(10.0495 0.122439 0)
(10.1772 0.0641762 0)
(10.1467 0.0211639 0)
(10.0676 0.0474093 0)
(9.97825 0.0718889 0)
(9.92436 0.0845242 0)
(9.92856 0.0963911 0)
(9.97631 0.114917 0)
(10.0366 0.13826 0)
(10.0843 0.156808 0)
(10.1048 0.162326 0)
(10.0922 0.154793 0)
(10.0463 0.143168 0)
(9.97602 0.139545 0)
(9.89375 0.153364 0)
(9.8192 0.188111 0)
(9.76028 0.240472 0)
(9.72968 0.306417 0)
(10.1267 -0.0134496 0)
(10.1732 0.020046 0)
(10.0189 0.0638947 0)
(9.96829 0.121395 0)
(10.0029 0.150144 0)
(10.0408 0.139744 0)
(10.0614 0.111291 0)
(10.0867 0.0903294 0)
(10.1344 0.0889228 0)
(10.1973 0.104299 0)
(10.2492 0.128375 0)
(10.2653 0.156058 0)
(10.2364 0.185656 0)
(10.1712 0.217916 0)
(10.0866 0.25237 0)
(10 0.289565 0)
(9.92222 0.329146 0)
(9.85871 0.37136 0)
(10.1819 -0.0194956 0)
(10.1225 0.126936 0)
(10.0908 0.129453 0)
(10.0977 0.08142 0)
(10.1606 0.0670045 0)
(10.23 0.0844619 0)
(10.254 0.103713 0)
(10.2158 0.110073 0)
(10.1362 0.112081 0)
(10.0485 0.123987 0)
(9.97417 0.150687 0)
(9.91653 0.18657 0)
(9.87202 0.222905 0)
(9.83708 0.25424 0)
(9.81203 0.281219 0)
(9.79678 0.308496 0)
(9.79115 0.340529 0)
(9.79469 0.382326 0)
(9.97512 -0.000328196 0)
(10.2201 0.100872 0)
(10.2761 0.12585 0)
(10.179 0.111312 0)
(10.0405 0.0856172 0)
(9.94536 0.0797967 0)
(9.91955 0.0991875 0)
(9.94623 0.128107 0)
(9.99317 0.152958 0)
(10.0329 0.170102 0)
(10.049 0.18309 0)
(10.0391 0.197417 0)
(10.008 0.216002 0)
(9.96641 0.239591 0)
(9.92049 0.266197 0)
(9.87964 0.296252 0)
(9.84418 0.328351 0)
(9.82135 0.365455 0)
(10.0841 0.0470767 0)
(10.0067 -0.00539696 0)
(10.0557 0.0624049 0)
(10.0844 0.139879 0)
(10.0694 0.158583 0)
(10.047 0.134414 0)
(10.0322 0.102537 0)
(10.0306 0.0833886 0)
(10.0461 0.0875938 0)
(10.0736 0.118671 0)
(10.0984 0.169422 0)
(10.107 0.225923 0)
(10.0927 0.274639 0)
(10.0597 0.30963 0)
(10.0143 0.332789 0)
(9.96578 0.350774 0)
(9.91791 0.371219 0)
(9.87526 0.398543 0)
(10.0292 0.00962002 0)
(9.98227 0.0650367 0)
(9.90049 0.11863 0)
(9.92389 0.131805 0)
(9.97722 0.130238 0)
(9.99803 0.131419 0)
(9.98156 0.129316 0)
(9.95137 0.11718 0)
(9.93145 0.103561 0)
(9.93371 0.105561 0)
(9.95759 0.133604 0)
(9.99046 0.185098 0)
(10.0187 0.247575 0)
(10.0279 0.308259 0)
(10.0161 0.358114 0)
(9.98417 0.396717 0)
(9.94543 0.426078 0)
(9.90644 0.452839 0)
(9.84998 0.0504636 0)
(9.97097 0.0934588 0)
(9.97449 0.136365 0)
(9.92673 0.128358 0)
(9.91868 0.107493 0)
(9.99148 0.0934823 0)
(10.1059 0.0940786 0)
(10.2026 0.106525 0)
(10.2464 0.124051 0)
(10.2365 0.143457 0)
(10.1958 0.166934 0)
(10.1499 0.197851 0)
(10.1147 0.237082 0)
(10.0916 0.281589 0)
(10.0785 0.325065 0)
(10.0685 0.364344 0)
(10.0631 0.396217 0)
(10.0577 0.424516 0)
(9.97657 -0.0532974 0)
(9.85272 0.0319766 0)
(9.9425 0.0475282 0)
(10.0672 0.073947 0)
(10.123 0.0814445 0)
(10.0826 0.0525274 0)
(10.0126 0.0188266 0)
(9.97752 0.0151846 0)
(9.99288 0.0498785 0)
(10.0385 0.111716 0)
(10.087 0.185783 0)
(10.1206 0.260573 0)
(10.1345 0.329043 0)
(10.1338 0.386527 0)
(10.125 0.428524 0)
(10.1152 0.455074 0)
(10.1084 0.46753 0)
(10.1061 0.472914 0)
(9.91016 -0.0219925 0)
(10.1091 0.059441 0)
(10.1243 0.0667044 0)
(10.1124 0.0821181 0)
(10.1235 0.126666 0)
(10.1401 0.161532 0)
(10.1409 0.157051 0)
(10.1243 0.119163 0)
(10.1029 0.0767729 0)
(10.0893 0.0570807 0)
(10.0896 0.070814 0)
(10.1064 0.114101 0)
(10.1379 0.174721 0)
(10.1807 0.240206 0)
(10.227 0.300492 0)
(10.2684 0.350391 0)
(10.2984 0.389931 0)
(10.31 0.420545 0)
(9.93886 -0.0778308 0)
(10.0032 -0.146214 0)
(10.0871 -0.0907554 0)
(10.1407 0.000275401 0)
(10.1818 0.0549709 0)
(10.2282 0.070568 0)
(10.2812 0.0717834 0)
(10.3181 0.0823704 0)
(10.3173 0.113172 0)
(10.277 0.15906 0)
(10.215 0.206191 0)
(10.155 0.244452 0)
(10.1133 0.272383 0)
(10.0938 0.295332 0)
(10.0917 0.320575 0)
(10.1016 0.352138 0)
(10.1161 0.392233 0)
(10.1355 0.438084 0)
(10.2605 0.107733 0)
(10.0983 0.00945528 0)
(9.96975 0.0288 0)
(9.91458 0.0410669 0)
(9.93286 -4.85044e-05 0)
(9.99291 -0.0414208 0)
(10.0551 -0.0403515 0)
(10.1072 0.011148 0)
(10.1524 0.0902651 0)
(10.1888 0.164436 0)
(10.2111 0.214865 0)
(10.2176 0.243346 0)
(10.212 0.261836 0)
(10.1997 0.281999 0)
(10.1877 0.307055 0)
(10.1819 0.336763 0)
(10.1871 0.365628 0)
(10.2045 0.392896 0)
(9.98926 -0.0285198 0)
(10.0731 0.0482281 0)
(10.1662 0.0657575 0)
(10.2361 0.0343464 0)
(10.2805 0.00488069 0)
(10.2739 -0.00900366 0)
(10.2316 -0.0178274 0)
(10.1953 -0.0125069 0)
(10.1845 0.0223491 0)
(10.1917 0.0880684 0)
(10.203 0.170845 0)
(10.2093 0.24999 0)
(10.2083 0.307616 0)
(10.2037 0.334647 0)
(10.2023 0.332693 0)
(10.21 0.313791 0)
(10.2292 0.288498 0)
(10.2597 0.273342 0)
(10.1365 -0.191875 0)
(10.1669 -0.148632 0)
(10.1511 -0.141056 0)
(10.1467 -0.116614 0)
(10.159 -0.0553158 0)
(10.1613 0.00836177 0)
(10.1516 0.0464087 0)
(10.1423 0.060397 0)
(10.1369 0.0721963 0)
(10.1416 0.102389 0)
(10.1656 0.154437 0)
(10.2106 0.215208 0)
(10.2678 0.266624 0)
(10.3258 0.296334 0)
(10.3746 0.300624 0)
(10.4099 0.286704 0)
(10.4302 0.262821 0)
(10.4378 0.242308 0)
(10.2797 0.0414598 0)
(10.2214 0.0285484 0)
(10.1839 0.00680401 0)
(10.1407 -0.0256982 0)
(10.1107 -0.0364035 0)
(10.0928 -0.0226741 0)
(10.0846 0.00292926 0)
(10.0774 0.0274602 0)
(10.0676 0.0474019 0)
(10.0637 0.0666825 0)
(10.0766 0.089358 0)
(10.11 0.11656 0)
(10.1572 0.146291 0)
(10.2082 0.175556 0)
(10.2541 0.201238 0)
(10.2906 0.22218 0)
(10.3159 0.23809 0)
(10.3314 0.249838 0)
(9.9698 -0.0177742 0)
(10.075 0.00765012 0)
(10.0434 -0.0305582 0)
(10.029 -0.0177197 0)
(10.0363 0.0195052 0)
(10.0525 0.0566015 0)
(10.0853 0.0841343 0)
(10.1334 0.0965871 0)
(10.179 0.0927182 0)
(10.2067 0.0789019 0)
(10.2159 0.066484 0)
(10.2167 0.0649071 0)
(10.2202 0.0767489 0)
(10.2328 0.0980744 0)
(10.2562 0.122438 0)
(10.287 0.145356 0)
(10.321 0.164138 0)
(10.3519 0.180626 0)
(10.2722 0.0836346 0)
(10.1912 0.0964164 0)
(10.1407 0.0355015 0)
(10.1155 -0.00406139 0)
(10.0927 -0.0309601 0)
(10.1058 -0.0620756 0)
(10.1542 -0.0818779 0)
(10.2133 -0.0736434 0)
(10.2601 -0.036094 0)
(10.283 0.0183967 0)
(10.2827 0.0726036 0)
(10.2692 0.113681 0)
(10.2561 0.137661 0)
(10.2543 0.148269 0)
(10.2699 0.153287 0)
(10.3007 0.159319 0)
(10.3424 0.169778 0)
(10.3864 0.185567 0)
(9.97719 -0.0836523 0)
(10.1358 0.042035 0)
(10.1319 0.0177952 0)
(10.0906 -0.0243882 0)
(10.0943 -0.0359821 0)
(10.1395 -0.040922 0)
(10.1915 -0.0384329 0)
(10.2188 -0.0181743 0)
(10.2113 0.020245 0)
(10.1825 0.0655383 0)
(10.1558 0.10137 0)
(10.1489 0.115345 0)
(10.1675 0.106432 0)
(10.209 0.0822664 0)
(10.2682 0.0553255 0)
(10.338 0.0366503 0)
(10.4126 0.0313496 0)
(10.4858 0.0428273 0)
(10.0778 -0.037183 0)
(9.95564 0.0604395 0)
(9.91731 0.0991262 0)
(9.91753 0.0459689 0)
(9.93789 -0.0373076 0)
(9.94717 -0.0964605 0)
(9.93737 -0.101917 0)
(9.92118 -0.0605156 0)
(9.92142 -0.0010446 0)
(9.95474 0.0486179 0)
(10.0225 0.073673 0)
(10.1101 0.0726088 0)
(10.1957 0.0533865 0)
(10.2618 0.0268535 0)
(10.3003 0.00371474 0)
(10.317 -0.008137 0)
(10.3196 -0.00607394 0)
(10.3224 0.012174 0)
(9.89792 0.0704908 0)
(9.92977 0.107756 0)
(10.0223 0.0609778 0)
(10.1018 -0.0102295 0)
(10.0886 -0.0530752 0)
(10.0092 -0.0607897 0)
(9.93148 -0.0446448 0)
(9.89881 -0.0185772 0)
(9.91995 0.00439237 0)
(9.9807 0.015708 0)
(10.0587 0.0147275 0)
(10.1332 0.00786779 0)
(10.1915 0.00349591 0)
(10.231 0.00621682 0)
(10.2561 0.0145859 0)
(10.2743 0.0250976 0)
(10.291 0.0344786 0)
(10.3106 0.0435186 0)
(10.1985 -0.0819166 0)
(10.0857 0.0265649 0)
(10.0157 0.0302946 0)
(9.99862 -0.0148861 0)
(9.98412 -0.0396631 0)
(9.97059 -0.0426864 0)
(9.99733 -0.0515711 0)
(10.0773 -0.0700768 0)
(10.1885 -0.084147 0)
(10.2946 -0.0834393 0)
(10.3643 -0.0690132 0)
(10.3847 -0.049784 0)
(10.3645 -0.0348768 0)
(10.3266 -0.0289937 0)
(10.2946 -0.031275 0)
(10.2829 -0.0370113 0)
(10.2945 -0.0418484 0)
(10.3274 -0.0408229 0)
(9.70879 0.147991 0)
(10.0013 0.0747327 0)
(10.2672 0.0663932 0)
(10.3724 0.0590976 0)
(10.3294 0.0303316 0)
(10.2428 -0.00883423 0)
(10.1801 -0.0448947 0)
(10.1426 -0.0646718 0)
(10.115 -0.0627678 0)
(10.0981 -0.0424495 0)
(10.1046 -0.0123803 0)
(10.1419 0.0159442 0)
(10.2047 0.0327894 0)
(10.2795 0.0342517 0)
(10.3496 0.0232022 0)
(10.4033 0.00691669 0)
(10.435 -0.00844854 0)
(10.4457 -0.0165107 0)
(9.97929 0.123521 0)
(9.97955 -0.0606491 0)
(10.0035 -0.0909535 0)
(10.1379 -0.0603081 0)
(10.2769 -0.0408483 0)
(10.3614 -0.0499853 0)
(10.396 -0.0783343 0)
(10.3951 -0.105692 0)
(10.3686 -0.120324 0)
(10.3298 -0.121346 0)
(10.2957 -0.113065 0)
(10.278 -0.101212 0)
(10.277 -0.0901465 0)
(10.2863 -0.0811581 0)
(10.2969 -0.0732243 0)
(10.3041 -0.0653529 0)
(10.3047 -0.0570446 0)
(10.301 -0.0497095 0)
(9.85223 0.0111326 0)
(9.79334 -0.0153705 0)
(9.60794 0.0134619 0)
(9.49453 0.00371889 0)
(9.40214 -0.0104832 0)
(9.28488 -0.0103556 0)
(9.13909 -0.00628414 0)
(8.9716 -0.00371934 0)
(8.79501 -1.78489e-05 0)
(8.63005 0.0060013 0)
(8.49309 0.0107464 0)
(8.38525 0.00963786 0)
(8.29454 0.0017576 0)
(8.2096 -0.00948939 0)
(8.12441 -0.0188685 0)
(8.04284 -0.023068 0)
(7.96682 -0.0211485 0)
(7.90542 -0.0152034 0)
(-0.169045 0.183448 1.1972e-19)
(0.0210969 -0.170092 -1.18938e-19)
(0.49194 -0.63191 0)
(1.02327 -0.80444 0)
(1.59695 -0.814843 0)
(2.17255 -0.75106 1.14567e-19)
(2.69843 -0.655134 0)
(3.13988 -0.545161 0)
(3.48951 -0.428129 0)
(3.74282 -0.304081 0)
(3.89693 -0.167799 -1.09277e-19)
(3.94435 -0.0291337 0)
(3.87544 0.11609 0)
(3.67671 0.283932 0)
(3.35149 0.413875 0)
(2.94055 0.558752 -1.05599e-19)
(2.368 0.753717 0)
(1.66008 0.663257 0)
(1.04954 0.34227 0)
(0.6539 0.160377 0)
(0.429083 0.0778506 0)
(0.209102 0.153247 0)
(-0.0503158 0.145361 0)
(-0.126051 -0.0984249 -1.00039e-19)
(0.0890349 -0.325939 9.91752e-20)
(0.142059 -0.324543 -9.83013e-20)
(0.315464 -0.542646 -9.74156e-20)
(0.601177 -0.546026 0)
(0.395034 0.177122 0)
(-0.407073 0.331176 9.46801e-20)
(-0.936867 0.361197 9.36904e-20)
(-1.57554 0.477666 0)
(-2.2522 0.494885 0)
(-2.91943 0.502295 9.03816e-20)
(-3.57532 0.468429 0)
(-4.18124 0.438647 0)
(-4.75052 0.40243 -8.68801e-20)
(-5.26764 0.365862 0)
(-5.74346 0.328898 -8.4576e-20)
(-6.17609 0.294646 -1.6691e-19)
(-6.57404 0.263996 0)
(-6.93959 0.237034 0)
(-7.2779 0.212891 0)
(-7.59041 0.190896 0)
(-7.87883 0.169716 0)
(-8.14227 0.148745 -1.54834e-19)
(-8.37921 0.126942 -1.53108e-19)
(-8.5864 0.103685 -1.51478e-19)
(-8.76031 0.0786706 0)
(-8.89684 0.0518912 1.48525e-19)
(-8.99229 0.0235405 0)
(-9.04262 -0.00555005 -1.45992e-19)
(-9.04413 -0.0345642 -1.44874e-19)
(-8.99906 -0.0635471 0)
(-8.90607 -0.0924035 0)
(-8.76523 -0.120942 0)
(-8.57644 -0.148844 -1.41298e-19)
(-8.34039 -0.175765 0)
(-8.05813 -0.201534 0)
(-7.73108 -0.226096 0)
(-7.36078 -0.249587 0)
(-6.94847 -0.272368 0)
(-6.49477 -0.295066 0)
(-5.99922 -0.318555 0)
(-5.45979 -0.343849 0)
(-4.87239 -0.371951 1.3611e-19)
(-4.23051 -0.403727 0)
(-3.52518 -0.439832 0)
(-2.74581 -0.480649 -1.34285e-19)
(-1.88345 -0.52609 -1.33543e-19)
(-0.936878 -0.574902 0)
(0.0832817 -0.62244 1.31509e-19)
(1.15826 -0.64484 -1.29874e-19)
(2.26177 -0.633167 0)
(3.32825 -0.564749 1.25756e-19)
(4.27187 -0.421403 0)
(4.98311 -0.212813 0)
(5.3413 -0.0293949 -1.20047e-19)
(5.39349 0.147999 0)
(4.94287 0.311324 1.17749e-19)
(4.17441 0.413715 0)
(2.95104 0.675702 -1.16389e-19)
(1.09733 0.552913 -1.15673e-19)
(0.223566 -0.19036 -1.14743e-19)
(0.576449 -0.558311 -2.27202e-19)
(0.625572 -0.434286 2.24508e-19)
(0.688549 -0.325291 0)
(1.17067 -0.692367 0)
(1.74299 -0.306497 0)
(-0.294019 0.929204 2.14335e-19)
(-2.9869 1.13926 2.10853e-19)
(-4.84942 0.93861 -2.06397e-19)
(-6.50868 0.773887 0)
(-7.85513 0.624371 1.96504e-19)
(-9.00603 0.510533 1.91599e-19)
(-9.95915 0.417445 1.86906e-19)
(-10.7603 0.339452 0)
(-11.4142 0.269444 0)
(-11.9341 0.204061 0)
(-12.3198 0.141528 1.7155e-19)
(-12.5736 0.0816018 0)
(-12.695 0.0249843 0)
(-12.6861 -0.0277474 -1.64658e-19)
(-12.5637 -0.0770484 0)
(-12.3307 -0.123023 0)
(-11.9957 -0.164828 -1.61663e-19)
(-11.5657 -0.201765 0)
(-11.0526 -0.233286 0)
(-10.4669 -0.258832 1.61241e-19)
(-9.82243 -0.278235 1.61319e-19)
(-9.1319 -0.291408 0)
(-8.40992 -0.298305 -1.6136e-19)
(-7.67029 -0.299146 0)
(-6.92718 -0.294208 1.60863e-19)
(-6.19347 -0.284154 0)
(-5.48066 -0.269804 1.59552e-19)
(-4.79804 -0.252192 1.5857e-19)
(-4.15239 -0.232372 0)
(-3.54785 -0.211457 0)
(-2.98616 -0.190586 0)
(-2.46689 -0.170868 0)
(-1.98744 -0.153282 0)
(-1.5424 -0.13858 0)
(-1.12283 -0.127324 0)
(-0.715955 -0.120326 1.45445e-19)
(-0.306549 -0.118429 -1.43536e-19)
(0.120415 -0.12201 0)
(0.574662 -0.12933 0)
(1.0573 -0.136068 0)
(1.55952 -0.137611 0)
(2.06343 -0.131907 -2.67256e-19)
(2.548 -0.120146 0)
(2.99688 -0.105128 2.59319e-19)
(3.40169 -0.0893705 -2.55345e-19)
(3.75996 -0.0743543 0)
(4.07106 -0.060246 0)
(4.3337 -0.0475567 0)
(4.54917 -0.0382525 2.39549e-19)
(4.72468 -0.0324979 2.35662e-19)
(4.87032 -0.0307828 0)
(5.0023 -0.0340046 2.2802e-19)
(5.13709 -0.0384688 2.24279e-19)
(5.28503 -0.0459387 -2.20597e-19)
(5.46256 -0.0551623 0)
(5.66736 -0.0589675 0)
(5.89076 -0.0618734 -2.09889e-19)
(6.12867 -0.0545318 0)
(6.34572 -0.0489863 0)
(6.56416 -0.0465951 0)
(6.72886 -0.0168522 0)
(6.82872 -0.0109577 1.92951e-19)
(6.93611 0.0475042 1.89817e-19)
(6.7604 0.0609209 0)
(6.64654 -0.0770373 1.83997e-19)
(6.4935 0.292767 0)
(4.75553 0.74308 0)
(2.43075 0.338164 1.75745e-19)
(1.26057 -0.0936402 0)
(0.751178 -0.113351 1.67892e-19)
(0.531994 0.0325214 0)
(0.29724 0.13527 0)
(-0.192999 0.117501 1.58024e-19)
(-0.588659 0.0410638 0)
(-0.667827 -0.0473336 1.51951e-19)
(-0.432117 -0.104691 0)
(-0.020793 -0.110056 0)
(0.40746 -0.0707388 0)
(0.754074 -0.00914149 -1.43353e-19)
(1.00279 0.0392474 0)
(1.17428 0.0437808 1.37923e-19)
(1.28429 0.00664874 0)
(1.36052 -0.0430778 0)
(1.45914 -0.087032 0)
(1.68377 -0.122973 0)
(2.10874 -0.124875 0)
(2.65403 -0.0551109 0)
(3.07723 0.0563042 0)
(3.11803 0.108608 -2.30531e-19)
(2.9048 0.096545 0)
(2.54438 0.0953968 0)
(0.0649798 0.725645 -3.59027e-19)
(0.69333 -0.938758 3.55537e-19)
(1.26961 -1.86316 0)
(1.77898 -2.11699 -2.32256e-19)
(2.22175 -2.03517 0)
(2.61539 -1.82346 -1.14276e-19)
(2.9629 -1.57264 2.25903e-19)
(3.26444 -1.31159 2.2382e-19)
(3.51423 -1.04439 0)
(3.70622 -0.769517 2.19891e-19)
(3.83467 -0.480765 1.09271e-19)
(3.89214 -0.184754 0)
(3.88308 0.121001 0)
(3.80853 0.451211 0)
(3.64968 0.754591 0)
(3.39574 1.05182 1.05339e-19)
(3.05434 1.3922 0)
(2.64877 1.58447 -2.07766e-19)
(2.11984 1.59764 0)
(1.51936 1.32009 0)
(1.05816 0.769032 2.04401e-19)
(0.695317 0.557974 0)
(0.390022 0.657558 -2.01505e-19)
(0.437356 0.396464 9.99427e-20)
(0.693794 -0.249252 -9.90983e-20)
(0.24454 -0.187324 9.82401e-20)
(-0.899307 0.846819 9.72535e-20)
(-1.51542 1.04963 0)
(-2.11009 1.27132 0)
(-2.83949 1.45557 -9.40214e-20)
(-3.40119 1.5634 9.27854e-20)
(-4.00502 1.59432 0)
(-4.52616 1.56864 0)
(-5.03934 1.51283 -8.98067e-20)
(-5.51367 1.42683 0)
(-5.96068 1.32888 0)
(-6.37544 1.22136 8.64644e-20)
(-6.76175 1.11776 0)
(-7.12266 1.02062 -8.38711e-20)
(-7.4603 0.934724 1.66299e-19)
(-7.77764 0.859236 0)
(-8.07545 0.793127 0)
(-8.35461 0.733251 3.19484e-19)
(-8.61331 0.676411 3.156e-19)
(-8.84943 0.619077 3.11869e-19)
(-9.05922 0.558378 -1.53841e-19)
(-9.23908 0.491968 1.52777e-19)
(-9.38515 0.418522 4.52941e-19)
(-9.49438 0.337681 -2.98788e-19)
(-9.56427 0.249966 -1.48303e-19)
(-9.59328 0.156538 0)
(-9.58112 0.0592825 1.45834e-19)
(-9.52793 -0.0398214 -1.44234e-19)
(-9.42942 -0.139354 0)
(-9.28591 -0.238301 0)
(-9.09684 -0.335588 0)
(-8.86302 -0.430305 1.41157e-19)
(-8.5851 -0.521601 0)
(-8.26421 -0.608903 -2.79253e-19)
(-7.90174 -0.691977 0)
(-7.49918 -0.771046 -2.76912e-19)
(-7.05789 -0.846955 0)
(-6.57869 -0.921368 2.74735e-19)
(-6.06127 -0.996891 0)
(-5.50346 -1.07693 -2.72566e-19)
(-4.90078 -1.16526 1.35489e-19)
(-4.24623 -1.26552 0)
(-3.5304 -1.38107 2.68994e-19)
(-2.74212 -1.515 1.34095e-19)
(-1.87055 -1.6692 1.33335e-19)
(-0.911687 -1.84043 0)
(0.12388 -2.01418 1.3045e-19)
(1.21262 -2.13525 1.29587e-19)
(2.29611 -2.16182 0)
(3.31281 -1.94667 -1.25545e-19)
(4.14534 -1.48902 2.45761e-19)
(4.79758 -0.909879 0)
(5.09588 -0.308304 1.20082e-19)
(5.1845 0.276308 0)
(4.97852 0.849124 -3.51952e-19)
(4.57709 1.2507 0)
(3.96575 1.65601 3.47293e-19)
(2.85288 1.77457 1.15222e-19)
(1.85362 1.29119 -1.14229e-19)
(1.2765 0.500087 -2.27138e-19)
(1.51347 -0.524502 2.24683e-19)
(1.47155 -0.365058 0)
(-0.710389 1.18476 0)
(-2.85833 2.28728 0)
(-4.91595 2.75893 -6.35479e-19)
(-6.45683 2.5569 -2.09183e-19)
(-7.52357 2.20393 2.05087e-19)
(-8.44768 1.83853 0)
(-9.20016 1.52703 1.93422e-19)
(-9.87464 1.27107 -1.91113e-19)
(-10.461 1.0602 -1.86577e-19)
(-10.9743 0.875177 0)
(-11.407 0.703375 0)
(-11.7544 0.536268 0)
(-12.0118 0.37064 -1.7157e-19)
(-12.174 0.206458 0)
(-12.2401 0.0454989 3.3218e-19)
(-12.2074 -0.109613 4.93315e-19)
(-12.0636 -0.257319 -3.25789e-19)
(-11.8126 -0.395578 0)
(-11.4593 -0.522011 -1.60945e-19)
(-11.0134 -0.63413 0)
(-10.4842 -0.730067 -3.21854e-19)
(-9.88516 -0.808387 1.60717e-19)
(-9.22807 -0.868423 1.60866e-19)
(-8.5278 -0.909974 0)
(-7.79807 -0.933128 4.83726e-19)
(-7.05414 -0.938431 -3.22133e-19)
(-6.31043 -0.927022 -1.60843e-19)
(-5.58092 -0.900956 0)
(-4.87763 -0.863063 -1.5954e-19)
(-4.21014 -0.816602 -4.75616e-19)
(-3.58497 -0.764826 0)
(-3.0054 -0.710823 -3.11984e-19)
(-2.47184 -0.657515 -3.0894e-19)
(-1.98248 -0.607681 -3.05626e-19)
(-1.53384 -0.563872 0)
(-1.12022 -0.528258 0)
(-0.733088 -0.502434 0)
(-0.360224 -0.488027 1.45327e-19)
(0.0136862 -0.486844 1.43495e-19)
(0.405858 -0.499685 0)
(0.831399 -0.522857 2.78772e-19)
(1.29677 -0.545135 2.74782e-19)
(1.79503 -0.552734 0)
(2.30626 -0.538572 2.67045e-19)
(2.80626 -0.505408 5.25937e-19)
(3.27739 -0.461172 -2.59125e-19)
(3.71285 -0.412509 -2.54997e-19)
(4.11294 -0.362103 0)
(4.47827 -0.310247 0)
(4.80719 -0.258064 0)
(5.09684 -0.209557 -2.39362e-19)
(5.34522 -0.170023 2.35403e-19)
(5.55668 -0.143908 4.63177e-19)
(5.74148 -0.134381 -2.2782e-19)
(5.91321 -0.140602 2.24007e-19)
(6.09055 -0.159491 2.20386e-19)
(6.28761 -0.185304 0)
(6.50891 -0.206854 0)
(6.75224 -0.220525 -2.09596e-19)
(7.01185 -0.221348 0)
(7.2698 -0.207114 0)
(7.50369 -0.178819 3.98593e-19)
(7.71214 -0.125573 0)
(7.83011 -0.0934474 1.92622e-19)
(7.92786 -0.0285088 -1.89633e-19)
(7.98201 0.114636 0)
(7.81076 0.144569 1.83356e-19)
(7.77306 0.360233 0)
(7.50026 0.953959 0)
(6.84059 1.38339 -1.74854e-19)
(6.23252 1.31503 3.4066e-19)
(4.50522 0.611877 -1.67181e-19)
(2.2671 0.074241 0)
(1.38713 0.121658 0)
(1.08897 0.213174 1.57678e-19)
(0.890157 0.0796391 0)
(0.86253 -0.16043 1.51713e-19)
(1.04621 -0.323496 0)
(1.378 -0.353274 0)
(1.71483 -0.295907 0)
(1.93721 -0.22983 1.43192e-19)
(2.04295 -0.19639 0)
(2.13743 -0.170961 -1.37808e-19)
(2.28773 -0.12405 0)
(2.43409 -0.0843618 0)
(2.50258 -0.118811 2.58636e-19)
(2.56564 -0.250525 -2.52949e-19)
(2.77684 -0.397213 0)
(3.19594 -0.419028 0)
(3.72358 -0.2522 0)
(3.96195 0.0100143 6.90975e-19)
(3.53719 0.226337 0)
(2.53789 0.384618 -4.38079e-19)
(0.354948 -1.03542 2.91093e-22)
(0.936157 -2.85702 -4.72481e-19)
(1.39638 -3.19436 0)
(1.71149 -2.92586 4.63676e-19)
(1.93011 -2.53085 0)
(2.12797 -2.15518 0)
(2.33031 -1.8139 -5.13234e-22)
(2.52972 -1.4839 -2.24158e-19)
(2.71295 -1.13785 -2.21745e-19)
(2.86036 -0.767993 -2.20348e-19)
(2.96584 -0.377118 0)
(3.02662 0.034067 0)
(3.03441 0.450123 2.14569e-19)
(2.99306 0.870841 4.2566e-19)
(2.90078 1.2782 -4.22587e-19)
(2.74417 1.64497 0)
(2.55488 1.96311 -4.172e-19)
(2.30111 2.25246 2.07777e-19)
(1.91768 2.38617 0)
(1.52936 2.01585 -4.10293e-19)
(1.13312 1.46077 -2.04145e-19)
(0.614576 1.3578 4.05568e-19)
(0.496508 0.940872 2.01438e-19)
(0.557763 0.00287264 0)
(-0.413102 0.752449 -3.96376e-19)
(-1.39744 1.59385 -3.91668e-19)
(-2.13575 1.94106 0)
(-2.7517 2.08977 -3.82666e-19)
(-3.36907 2.28647 0)
(-3.91046 2.38006 -3.73864e-19)
(-4.38799 2.40478 -1.85109e-19)
(-4.86276 2.37893 0)
(-5.29534 2.31744 0)
(-5.72489 2.21355 0)
(-6.11839 2.07727 0)
(-6.4944 1.92365 0)
(-6.84218 1.76744 0)
(-7.17121 1.61992 -3.38954e-19)
(-7.47939 1.48512 5.02504e-19)
(-7.77197 1.36558 0)
(-8.04902 1.2586 0)
(-8.31199 1.16104 0)
(-8.55962 1.06776 -9.92312e-22)
(-8.79012 0.974013 -3.15322e-19)
(-9.00043 0.875297 -6.22279e-19)
(-9.18673 0.768465 6.1524e-19)
(-9.34505 0.651808 3.03805e-19)
(-9.47155 0.525169 -3.01631e-19)
(-9.563 0.389443 9.32554e-22)
(-9.61674 0.246303 -2.9507e-19)
(-9.63071 0.0977481 0)
(-9.60325 -0.0543498 -2.90278e-19)
(-9.53303 -0.208416 8.04631e-22)
(-9.419 -0.362613 0)
(-9.26073 -0.515306 0)
(-9.05803 -0.665047 2.82654e-19)
(-8.81115 -0.81042 0)
(-8.52089 -0.950244 0)
(-8.18853 -1.08357 -2.77879e-19)
(-7.81582 -1.20998 -5.54561e-19)
(-7.40483 -1.32974 2.76729e-19)
(-6.95782 -1.44411 0)
(-6.47687 -1.5557 -2.74521e-19)
(-5.96312 -1.66876 0)
(-5.41572 -1.7891 -2.70895e-19)
(-4.83095 -1.92341 -2.71158e-19)
(-4.20246 -2.07834 5.38274e-19)
(-3.52211 -2.26031 2.66906e-19)
(-2.78086 -2.47661 0)
(-1.96892 -2.73486 -5.29092e-19)
(-1.07836 -3.03375 0)
(-0.116863 -3.3415 -7.81301e-19)
(0.870593 -3.55994 -5.13199e-19)
(1.77496 -3.56122 -5.04921e-19)
(2.56187 -3.12572 4.96535e-19)
(3.31179 -2.36798 -7.34732e-19)
(3.84862 -1.52173 0)
(4.18728 -0.651931 0)
(4.35335 0.224091 4.71317e-19)
(4.24422 1.1278 7.01222e-19)
(3.90233 1.79966 0)
(3.46925 2.37395 -2.31198e-19)
(2.94668 2.54489 0)
(2.01734 2.39323 6.8442e-19)
(1.70598 0.794809 -3.65767e-22)
(0.53892 0.454884 3.11454e-22)
(-1.3754 1.99621 -4.42769e-19)
(-3.56799 3.35485 0)
(-5.18841 3.95235 4.26132e-19)
(-6.22485 3.94749 3.07905e-21)
(-6.80493 3.54288 0)
(-7.32364 3.06744 0)
(-7.81572 2.60718 0)
(-8.36507 2.22879 -3.89307e-19)
(-8.9316 1.91459 0)
(-9.50871 1.64532 0)
(-10.0488 1.39499 0)
(-10.5342 1.14702 0)
(-10.9341 0.893016 0)
(-11.2376 0.631283 -3.40549e-19)
(-11.4307 0.365029 0)
(-11.5105 0.0988075 -3.32516e-19)
(-11.4741 -0.16196 -3.28847e-19)
(-11.3234 -0.411513 3.26027e-19)
(-11.0626 -0.6449 0)
(-10.6981 -0.857765 3.22797e-19)
(-10.2386 -1.04611 0)
(-9.69521 -1.20637 3.21941e-19)
(-9.08009 -1.33634 -3.2202e-19)
(-8.40649 -1.43479 -9.65221e-19)
(-7.68803 -1.50133 0)
(-6.93906 -1.53604 -9.66289e-19)
(-6.1746 -1.53942 -3.21397e-19)
(-5.41036 -1.51321 0)
(-4.66183 -1.46089 -6.40631e-19)
(-3.94335 -1.38786 -6.37798e-19)
(-3.26724 -1.30075 9.51212e-19)
(-2.64331 -1.20643 0)
(-2.07815 -1.1113 3.12128e-19)
(-1.57454 -1.02093 3.09091e-19)
(-1.13177 -0.939787 9.17152e-19)
(-0.745873 -0.870959 0)
(-0.408735 -0.817039 0)
(-0.107732 -0.780096 0)
(0.172946 -0.761978 2.90406e-19)
(0.450311 -0.765513 0)
(0.743728 -0.792983 0)
(1.07472 -0.839442 -2.7856e-19)
(1.46044 -0.88581 -2.74584e-19)
(1.9008 -0.906671 0)
(2.37346 -0.88817 0)
(2.84536 -0.836089 -5.25634e-19)
(3.29067 -0.766949 0)
(3.69938 -0.694349 5.09935e-19)
(4.0731 -0.622991 5.0186e-19)
(4.41693 -0.55131 0)
(4.73409 -0.477653 0)
(5.02509 -0.405024 -4.78421e-19)
(5.28995 -0.339717 -1.1975e-22)
(5.53 -0.288606 -1.17995e-22)
(5.74913 -0.259775 0)
(5.95599 -0.25636 -8.95822e-19)
(6.16534 -0.275767 0)
(6.3934 -0.312677 0)
(6.64887 -0.349044 0)
(6.93398 -0.372266 4.19069e-19)
(7.23963 -0.376851 0)
(7.54436 -0.354535 -8.10109e-19)
(7.82546 -0.316734 -3.98374e-19)
(8.07536 -0.235833 0)
(8.28732 -0.133215 -3.85173e-19)
(8.39818 -0.0531654 0)
(8.47757 0.113352 0)
(8.52513 0.287373 -1.09924e-18)
(8.41052 0.515284 7.20649e-19)
(8.32954 1.06488 0)
(8.38184 1.59908 6.94285e-19)
(8.39454 1.69145 -3.39614e-19)
(7.81093 1.48646 0)
(6.41974 1.22544 0)
(4.75617 0.896195 0)
(3.62696 0.58156 -9.43469e-19)
(3.0969 0.229769 0)
(2.84527 -0.163628 -3.03106e-19)
(2.81203 -0.44544 0)
(2.96327 -0.523719 0)
(3.17983 -0.428713 0)
(3.37218 -0.249744 0)
(3.44348 -0.106777 0)
(3.36067 -0.0685856 0)
(3.25052 -0.0797343 -5.39652e-19)
(3.19003 -0.0725607 0)
(3.11835 -0.100784 -2.5851e-19)
(3.04384 -0.256223 7.58547e-19)
(3.08053 -0.476318 0)
(3.29363 -0.552398 0)
(3.61454 -0.341234 -4.71927e-19)
(3.68319 0.0926895 -4.60593e-19)
(3.07592 0.538664 4.48979e-19)
(1.91757 0.853881 4.37813e-19)
(0.317461 -2.82503 7.14576e-19)
(0.689298 -3.71944 7.06931e-19)
(0.986658 -3.36257 4.66766e-19)
(1.19832 -2.97548 2.30953e-19)
(1.38881 -2.71511 0)
(1.5946 -2.48758 -4.54897e-19)
(1.7997 -2.22932 2.25038e-19)
(1.98407 -1.91275 0)
(2.13864 -1.52382 2.22034e-19)
(2.24592 -1.07718 0)
(2.30665 -0.595098 -4.36314e-19)
(2.3354 -0.0810794 0)
(2.32586 0.452391 -2.14978e-19)
(2.275 0.98391 -4.26375e-19)
(2.18545 1.4953 4.23215e-19)
(2.04947 1.96113 0)
(1.86342 2.40083 4.17749e-19)
(1.60828 2.79059 0)
(1.33726 2.84592 0)
(1.03887 2.56215 4.105e-19)
(0.576171 2.37054 0)
(0.352148 1.81968 -3.47226e-22)
(0.3328 0.955191 0)
(-0.496924 1.40821 0)
(-1.49299 2.3478 3.36282e-22)
(-2.20256 2.78997 3.90054e-19)
(-2.76594 2.92617 3.853e-19)
(-3.32842 3.06958 3.81552e-19)
(-3.85132 3.16282 0)
(-4.31299 3.17082 7.45266e-19)
(-4.77118 3.15822 0)
(-5.21937 3.10952 3.63429e-19)
(-5.64424 3.01277 0)
(-6.04269 2.86354 0)
(-6.40256 2.68246 -3.50237e-19)
(-6.73748 2.48886 0)
(-7.04659 2.29928 3.41568e-19)
(-7.34154 2.12215 1.30595e-21)
(-7.62405 1.96183 -6.67335e-19)
(-7.8996 1.81861 6.57607e-19)
(-8.16698 1.68931 0)
(-8.4261 1.56947 0)
(-8.67371 1.45276 3.15286e-19)
(-8.90702 1.333 0)
(-9.12188 1.20428 3.10435e-19)
(-9.31406 1.06238 -3.06936e-19)
(-9.47887 0.904829 -3.03626e-19)
(-9.61164 0.73125 0)
(-9.70793 0.542898 2.97634e-19)
(-9.76342 0.342196 2.94964e-19)
(-9.77407 0.131939 -5.82515e-19)
(-9.73716 -0.0849474 2.90162e-19)
(-9.65048 -0.305309 2.8796e-19)
(-9.51404 -0.526375 0)
(-9.32853 -0.745453 0)
(-9.09575 -0.959965 -2.8249e-19)
(-8.81819 -1.16753 0)
(-8.49893 -1.36603 0)
(-8.14137 -1.55383 5.56609e-19)
(-7.74898 -1.73001 5.54174e-19)
(-7.32527 -1.89467 0)
(-6.87384 -2.04926 0)
(-6.39816 -2.19719 0)
(-5.90094 -2.34439 0)
(-5.38257 -2.49928 5.4265e-19)
(-4.84006 -2.67155 -5.38201e-19)
(-4.26767 -2.86993 -5.37564e-19)
(-3.65946 -3.10107 -1.06726e-18)
(-3.01063 -3.37183 0)
(-2.31516 -3.69079 2.44164e-21)
(-1.56651 -4.05574 0)
(-0.78524 -4.41741 5.18929e-19)
(-0.0661695 -4.63834 2.673e-21)
(0.51413 -4.49276 5.05253e-19)
(1.07482 -3.7801 -4.97214e-19)
(1.79066 -2.73585 1.99377e-21)
(2.2166 -1.7892 0)
(2.59624 -0.820626 -4.76048e-19)
(2.88996 0.223148 -4.72574e-19)
(2.98756 1.30878 -9.34001e-19)
(2.76719 2.17261 0)
(2.45118 2.84411 4.60005e-19)
(2.0786 3.16057 0)
(1.45384 2.85949 -9.12258e-19)
(0.729433 1.35153 4.54013e-19)
(-1.13356 2.29921 -4.4829e-19)
(-3.17402 3.9694 4.40283e-19)
(-4.73238 4.83948 8.61333e-19)
(-5.51594 4.92688 -4.25305e-19)
(-5.92409 4.58462 4.18169e-19)
(-6.2063 4.07462 0)
(-6.60384 3.59569 -8.00341e-19)
(-7.06331 3.17409 0)
(-7.64608 2.82546 -7.6804e-19)
(-8.25602 2.51225 7.51234e-19)
(-8.88142 2.21043 7.3448e-19)
(-9.45653 1.8972 -7.18238e-19)
(-9.96315 1.56291 -7.02976e-19)
(-10.3684 1.20659 0)
(-10.6638 0.834339 -3.36192e-19)
(-10.8391 0.455565 0)
(-10.8954 0.0796273 0)
(-10.8338 -0.285751 -6.51142e-19)
(-10.66 -0.634332 0)
(-10.3787 -0.96013 0)
(-9.99687 -1.25735 -6.40177e-19)
(-9.52327 -1.52044 0)
(-8.96881 -1.74449 0)