/*--------------------------------*- C++ -*----------------------------------*\
  =========                 |
  \\      /  F ield         | OpenFOAM: The Open Source CFD Toolbox
   \\    /   O peration     | Website:  https://openfoam.org
    \\  /    A nd           | Version:  6
     \\/     M anipulation  |
\*---------------------------------------------------------------------------*/
FoamFile
{
    version     2.0;
    format      ascii;
    class       volVectorField;
    location    "0.35";
    object      U_0;
}
// * * * * * * * * * * * * * * * * * * * * * * * * * * * * * * * * * * * * * //

dimensions      [0 1 -1 0 0 0 0];

internalField   nonuniform List<vector> 
12225
(
(9.65682 0.0296162 0)
(9.37279 0.0229573 0)
(9.18253 0.0124782 0)
(8.9384 0.0388795 0)
(8.61513 0.0726249 0)
(8.25915 0.0822465 0)
(7.93648 0.0663507 0)
(7.68214 0.0437674 0)
(7.46977 0.0358998 0)
(7.25133 0.0483363 0)
(6.9642 0.0719027 0)
(6.62162 0.0863754 0)
(6.23364 0.0905016 0)
(5.86205 0.0821888 0)
(5.47879 0.0800566 0)
(5.13407 0.0797446 0)
(4.69241 0.105614 0)
(4.34426 0.106562 0)
(9.95393 0.037306 0)
(9.93815 0.0539942 0)
(9.92714 0.0567029 0)
(10.0158 0.061454 0)
(10.0883 0.0721948 0)
(10.0633 0.0807522 0)
(9.97012 0.0796259 0)
(9.86809 0.0745127 0)
(9.79099 0.0744116 0)
(9.74962 0.0857319 0)
(9.7235 0.10669 0)
(9.69512 0.129215 0)
(9.63718 0.146351 0)
(9.54582 0.15804 0)
(9.40767 0.167869 0)
(9.23435 0.187182 0)
(9.01348 0.216933 0)
(8.78214 0.265421 0)
(9.92083 0.0777924 0)
(9.93205 0.0513991 0)
(9.8496 0.0290737 0)
(9.78544 0.0404214 0)
(9.81119 0.0795876 0)
(9.8992 0.11201 0)
(9.98381 0.114674 0)
(10.0148 0.0959713 0)
(9.98676 0.0781721 0)
(9.93193 0.0780729 0)
(9.88906 0.0975188 0)
(9.87555 0.12696 0)
(9.88332 0.157187 0)
(9.89011 0.185553 0)
(9.88113 0.214392 0)
(9.84396 0.250445 0)
(9.78846 0.292669 0)
(9.71787 0.347229 0)
(10.0292 0.0390252 0)
(10.0436 0.128638 0)
(10.0333 0.105525 0)
(9.92394 0.0633025 0)
(9.82428 0.0468659 0)
(9.80074 0.0516202 0)
(9.8304 0.0628305 0)
(9.86024 0.077908 0)
(9.86586 0.0962508 0)
(9.85603 0.113233 0)
(9.85096 0.125231 0)
(9.86389 0.132752 0)
(9.89467 0.141529 0)
(9.93219 0.158803 0)
(9.96323 0.189698 0)
(9.97754 0.236733 0)
(9.97502 0.296501 0)
(9.95643 0.367305 0)
(9.94116 -0.00842053 0)
(9.94084 -0.00507669 0)
(9.97427 0.0447947 0)
(9.96046 0.0972069 0)
(9.9038 0.108327 0)
(9.85027 0.0966902 0)
(9.82954 0.0880092 0)
(9.83408 0.0901082 0)
(9.84349 0.0972598 0)
(9.8458 0.103116 0)
(9.84244 0.107964 0)
(9.84291 0.115502 0)
(9.85479 0.130532 0)
(9.87901 0.156875 0)
(9.90798 0.195897 0)
(9.93553 0.247861 0)
(9.95407 0.308577 0)
(9.9631 0.373065 0)
(10.2126 0.0742492 0)
(10.0538 0.110027 0)
(10.0317 0.0770604 0)
(10.0759 0.0629067 0)
(10.1167 0.0651547 0)
(10.1166 0.064449 0)
(10.0705 0.0563126 0)
(9.99824 0.0548567 0)
(9.92662 0.0686618 0)
(9.86974 0.0904208 0)
(9.82816 0.108122 0)
(9.80023 0.116743 0)
(9.78561 0.121891 0)
(9.78542 0.135766 0)
(9.79518 0.168145 0)
(9.8112 0.221965 0)
(9.82446 0.292334 0)
(9.83398 0.369013 0)
(9.83827 0.0461489 0)
(9.84096 0.0886546 0)
(9.99752 0.0791259 0)
(10.0791 0.0991544 0)
(10.0834 0.118869 0)
(10.0531 0.136876 0)
(10.0041 0.151967 0)
(9.93613 0.160516 0)
(9.85458 0.161752 0)
(9.77414 0.157434 0)
(9.70775 0.150698 0)
(9.66194 0.145225 0)
(9.63689 0.14585 0)
(9.63063 0.158692 0)
(9.64034 0.187979 0)
(9.66331 0.23446 0)
(9.69451 0.294045 0)
(9.7329 0.361471 0)
(10.0404 0.103296 0)
(10.1412 0.0471215 0)
(10.1094 0.0141943 0)
(10.0299 0.0461931 0)
(9.94186 0.0716483 0)
(9.89161 0.0847261 0)
(9.89986 0.0974618 0)
(9.94997 0.116909 0)
(10.0102 0.140559 0)
(10.0559 0.158506 0)
(10.0731 0.162971 0)
(10.0567 0.154843 0)
(10.007 0.143834 0)
(9.93381 0.142209 0)
(9.85026 0.159101 0)
(9.77619 0.197441 0)
(9.71926 0.253511 0)
(9.69192 0.322864 0)
(10.1238 -0.0515638 0)
(10.1349 0.00902637 0)
(9.97917 0.0597973 0)
(9.93764 0.120688 0)
(9.97594 0.149038 0)
(10.0131 0.137608 0)
(10.0329 0.109402 0)
(10.059 0.0899412 0)
(10.1081 0.0903402 0)
(10.1706 0.107084 0)
(10.2197 0.132044 0)
(10.2311 0.160453 0)
(10.1973 0.190891 0)
(10.1283 0.224189 0)
(10.0419 0.259896 0)
(9.95534 0.298648 0)
(9.87895 0.34004 0)
(9.81789 0.384311 0)
(10.1609 -0.0326154 0)
(10.0934 0.118803 0)
(10.0607 0.119849 0)
(10.0714 0.0756373 0)
(10.1367 0.0658853 0)
(10.204 0.0857786 0)
(10.2229 0.105249 0)
(10.1797 0.111312 0)
(10.097 0.113857 0)
(10.0087 0.127139 0)
(9.93488 0.155265 0)
(9.87777 0.191999 0)
(9.8336 0.228601 0)
(9.79905 0.260088 0)
(9.7747 0.287689 0)
(9.76046 0.316315 0)
(9.75626 0.350394 0)
(9.76141 0.394509 0)
(9.96217 -0.000549415 0)
(10.2008 0.0911172 0)
(10.2472 0.118795 0)
(10.1422 0.106552 0)
(10.0026 0.0833457 0)
(9.91097 0.0803539 0)
(9.8893 0.101746 0)
(9.91844 0.131361 0)
(9.96553 0.156092 0)
(10.0035 0.173053 0)
(10.017 0.186286 0)
(10.0045 0.201301 0)
(9.97135 0.220799 0)
(9.92863 0.245337 0)
(9.88234 0.272921 0)
(9.84189 0.304084 0)
(9.80742 0.337454 0)
(9.78639 0.376068 0)
(10.0535 0.0076062 0)
(9.9808 -0.0210157 0)
(10.0335 0.0603511 0)
(10.0581 0.139967 0)
(10.0399 0.157267 0)
(10.0166 0.132532 0)
(10.0018 0.101593 0)
(10.0009 0.0843008 0)
(10.017 0.0908802 0)
(10.0443 0.124293 0)
(10.0677 0.176592 0)
(10.0739 0.233478 0)
(10.0571 0.281681 0)
(10.0221 0.315974 0)
(9.97572 0.338909 0)
(9.92695 0.357463 0)
(9.87952 0.379178 0)
(9.83793 0.408195 0)
(10.0338 -0.0303924 0)
(9.95867 0.0526198 0)
(9.87629 0.11445 0)
(9.90193 0.130333 0)
(9.95293 0.130435 0)
(9.96949 0.132477 0)
(9.94996 0.130266 0)
(9.91881 0.117886 0)
(9.89952 0.105064 0)
(9.90312 0.109172 0)
(9.92803 0.139825 0)
(9.96082 0.193343 0)
(9.9877 0.256698 0)
(9.9946 0.317239 0)
(9.98049 0.366485 0)
(9.94706 0.404596 0)
(9.90818 0.433868 0)
(9.87039 0.461203 0)
(9.85511 0.0161836 0)
(9.96643 0.0885586 0)
(9.95451 0.134524 0)
(9.90159 0.126867 0)
(9.89461 0.107015 0)
(9.9705 0.0945287 0)
(10.0853 0.0967088 0)
(10.1786 0.110145 0)
(10.2172 0.128152 0)
(10.2027 0.148054 0)
(10.1598 0.17238 0)
(10.1136 0.20441 0)
(10.0791 0.244682 0)
(10.057 0.289779 0)
(10.0445 0.333321 0)
(10.035 0.372324 0)
(10.0304 0.403867 0)
(10.026 0.432255 0)
(9.95951 -0.040308 0)
(9.85014 0.0330336 0)
(9.93344 0.0500972 0)
(10.0514 0.0774382 0)
(10.0978 0.083134 0)
(10.0504 0.0528219 0)
(9.97915 0.020357 0)
(9.94651 0.0196482 0)
(9.96453 0.0571966 0)
(10.0112 0.120885 0)
(10.0588 0.195765 0)
(10.0906 0.270614 0)
(10.1027 0.338619 0)
(10.1008 0.39514 0)
(10.0915 0.435809 0)
(10.082 0.460989 0)
(10.0757 0.472391 0)
(10.0745 0.477557 0)
(9.93372 0.0130942 0)
(10.1067 0.0726976 0)
(10.108 0.0737134 0)
(10.0901 0.089594 0)
(10.0985 0.134609 0)
(10.1127 0.167262 0)
(10.1109 0.159414 0)
(10.0925 0.119555 0)
(10.0705 0.0777241 0)
(10.0573 0.060479 0)
(10.0586 0.0771658 0)
(10.0766 0.122786 0)
(10.1093 0.184594 0)
(10.153 0.250175 0)
(10.1995 0.309779 0)
(10.2403 0.358718 0)
(10.2688 0.397377 0)
(10.2785 0.427456 0)
(9.91055 -0.0626794 0)
(9.98787 -0.131756 0)
(10.0695 -0.073841 0)
(10.1195 0.0143817 0)
(10.1585 0.0645635 0)
(10.2039 0.0770541 0)
(10.2555 0.0774434 0)
(10.2889 0.0888931 0)
(10.2838 0.120958 0)
(10.2402 0.167386 0)
(10.177 0.21405 0)
(10.1176 0.25135 0)
(10.0777 0.278527 0)
(10.06 0.301396 0)
(10.0595 0.327232 0)
(10.0703 0.359799 0)
(10.0854 0.400946 0)
(10.1052 0.447432 0)
(10.2558 0.126539 0)
(10.0746 0.0240108 0)
(9.94141 0.0461001 0)
(9.88647 0.0524424 0)
(9.90654 0.00649845 0)
(9.96707 -0.0351962 0)
(10.0285 -0.0316351 0)
(10.0795 0.0223926 0)
(10.1237 0.101997 0)
(10.159 0.174491 0)
(10.1799 0.222506 0)
(10.185 0.249296 0)
(10.1785 0.267335 0)
(10.1658 0.287884 0)
(10.1543 0.313474 0)
(10.1495 0.343417 0)
(10.1563 0.372077 0)
(10.1754 0.398879 0)
(9.98474 0.0285581 0)
(10.0518 0.0819834 0)
(10.1407 0.0854813 0)
(10.2077 0.0465032 0)
(10.2488 0.0142764 0)
(10.2387 -0.000954078 0)
(10.195 -0.0105588 0)
(10.1599 -0.00452262 0)
(10.1509 0.0322596 0)
(10.1593 0.0997547 0)
(10.1706 0.182916 0)
(10.1762 0.260615 0)
(10.1747 0.315373 0)
(10.1702 0.339022 0)
(10.1696 0.334279 0)
(10.1788 0.313825 0)
(10.1996 0.288509 0)
(10.2315 0.274691 0)
(10.1101 -0.140193 0)
(10.1117 -0.116988 0)
(10.1056 -0.120856 0)
(10.1066 -0.0997407 0)
(10.1217 -0.0400256 0)
(10.1246 0.0206251 0)
(10.1151 0.0550772 0)
(10.1064 0.0668779 0)
(10.102 0.078757 0)
(10.1085 0.110422 0)
(10.1347 0.16367 0)
(10.1817 0.22421 0)
(10.24 0.273868 0)
(10.2981 0.300922 0)
(10.346 0.302632 0)
(10.38 0.286967 0)
(10.3989 0.262545 0)
(10.4055 0.242835 0)
(10.2222 0.0549394 0)
(10.1559 0.0421652 0)
(10.1295 0.0161927 0)
(10.0939 -0.0179348 0)
(10.0685 -0.0283768 0)
(10.0534 -0.0144579 0)
(10.0469 0.0105902 0)
(10.0404 0.0341743 0)
(10.0314 0.0533928 0)
(10.0291 0.0724233 0)
(10.0442 0.0951842 0)
(10.0797 0.12252 0)
(10.1283 0.152193 0)
(10.1796 0.181126 0)
(10.225 0.206263 0)
(10.2606 0.226591 0)
(10.2849 0.241912 0)
(10.2996 0.253266 0)
(9.93933 -0.0248278 0)
(10.014 0.00612346 0)
(9.99118 -0.0277732 0)
(9.9846 -0.0105204 0)
(9.99607 0.0279462 0)
(10.0153 0.0644774 0)
(10.0509 0.0904972 0)
(10.1006 0.101082 0)
(10.1461 0.0955652 0)
(10.1728 0.0809098 0)
(10.1812 0.068692 0)
(10.1821 0.0680213 0)
(10.1865 0.0808333 0)
(10.2005 0.102691 0)
(10.2254 0.127063 0)
(10.2571 0.149639 0)
(10.2915 0.168036 0)
(10.3224 0.184377 0)
(10.2369 0.0474303 0)
(10.1338 0.083373 0)
(10.0919 0.0310472 0)
(10.0711 -0.00387297 0)
(10.0518 -0.0294578 0)
(10.0691 -0.0603045 0)
(10.1204 -0.0788983 0)
(10.1805 -0.06862 0)
(10.2266 -0.0292205 0)
(10.2479 0.0259902 0)
(10.2464 0.0795506 0)
(10.2326 0.119105 0)
(10.2206 0.141471 0)
(10.2208 0.151011 0)
(10.2387 0.155732 0)
(10.2714 0.162049 0)
(10.3143 0.17307 0)
(10.3588 0.189279 0)
(9.97236 -0.124682 0)
(10.1088 0.0341469 0)
(10.0895 0.0135194 0)
(10.0481 -0.024898 0)
(10.0563 -0.0342249 0)
(10.1044 -0.0384099 0)
(10.1564 -0.0347886 0)
(10.1821 -0.0130313 0)
(10.1728 0.0264061 0)
(10.1437 0.0714767 0)
(10.1186 0.105675 0)
(10.1143 0.117244 0)
(10.136 0.10616 0)
(10.1801 0.0808089 0)
(10.2414 0.053983 0)
(10.3127 0.0364387 0)
(10.3882 0.0328767 0)
(10.4615 0.0461 0)
(10.0675 -0.0333134 0)
(9.92887 0.0657956 0)
(9.87867 0.0997537 0)
(9.87802 0.0424523 0)
(9.89923 -0.0407617 0)
(9.90817 -0.0966642 0)
(9.89796 -0.098004 0)
(9.8828 -0.053952 0)
(9.88591 0.0057786 0)
(9.92303 0.0537647 0)
(9.99413 0.0762751 0)
(10.0835 0.0728382 0)
(10.1686 0.0521039 0)
(10.2328 0.0251634 0)
(10.269 0.00269214 0)
(10.284 -0.0077611 0)
(10.286 -0.00388306 0)
(10.2894 0.0161721 0)
(9.88387 0.116452 0)
(9.903 0.118266 0)
(9.98945 0.0603925 0)
(10.0639 -0.0122051 0)
(10.0452 -0.0533617 0)
(9.96386 -0.0588929 0)
(9.8885 -0.0412982 0)
(9.86056 -0.0149815 0)
(9.8866 0.00716858 0)
(9.95079 0.017192 0)
(10.0302 0.0152174 0)
(10.1043 0.00817151 0)
(10.1614 0.0043474 0)
(10.1996 0.00780052 0)
(10.224 0.0165964 0)
(10.2421 0.0271366 0)
(10.2594 0.0363952 0)
(10.2799 0.0454431 0)
(10.1563 -0.0250427 0)
(10.0389 0.0415572 0)
(9.97135 0.0322913 0)
(9.9562 -0.0157518 0)
(9.94277 -0.0394928 0)
(9.93195 -0.0419315 0)
(9.96326 -0.051357 0)
(10.0477 -0.0701475 0)
(10.1613 -0.0835725 0)
(10.2665 -0.0817409 0)
(10.3329 -0.0665297 0)
(10.3492 -0.0473295 0)
(10.3262 -0.0331684 0)
(10.288 -0.0282963 0)
(10.2578 -0.031335 0)
(10.2488 -0.0373081 0)
(10.2635 -0.0417932 0)
(10.299 -0.0400296 0)
(9.68574 0.186156 0)
(9.9698 0.0806584 0)
(10.2375 0.0695116 0)
(10.3327 0.0591026 0)
(10.2838 0.0286553 0)
(10.1977 -0.0108065 0)
(10.1374 -0.0461371 0)
(10.1016 -0.0644963 0)
(10.0754 -0.0609923 0)
(10.0608 -0.0394169 0)
(10.0706 -0.00891325 0)
(10.1113 0.0187986 0)
(10.1767 0.0342504 0)
(10.2525 0.0341496 0)
(10.3221 0.0219891 0)
(10.3741 0.00532183 0)
(10.4035 -0.00969188 0)
(10.4127 -0.0169007 0)
(9.95458 0.126508 0)
(9.92544 -0.0630651 0)
(9.96351 -0.0879774 0)
(10.1056 -0.0572869 0)
(10.2451 -0.0399343 0)
(10.3272 -0.051061 0)
(10.359 -0.0801566 0)
(10.3561 -0.107084 0)
(10.3288 -0.120811 0)
(10.2906 -0.120983 0)
(10.2582 -0.112161 0)
(10.2428 -0.100127 0)
(10.2436 -0.0890987 0)
(10.254 -0.0801525 0)
(10.2647 -0.0721826 0)
(10.2716 -0.0642502 0)
(10.2719 -0.0559752 0)
(10.2681 -0.0487989 0)
(9.85218 0.00130215 0)
(9.74386 -0.0137344 0)
(9.56446 0.0148605 0)
(9.45707 0.00309844 0)
(9.36608 -0.0107856 0)
(9.24803 -0.00989444 0)
(9.10085 -0.0056327 0)
(8.93241 -0.00307945 0)
(8.75611 0.000685463 0)
(8.59276 0.00666524 0)
(8.45798 0.0110576 0)
(8.35188 0.0093686 0)
(8.26202 0.000986543 0)
(8.17724 -0.0104186 0)
(8.09208 -0.0195689 0)
(8.01082 -0.0233067 0)
(7.93554 -0.0209033 0)
(7.87517 -0.01465 0)
(-0.168647 0.18408 -3.86525e-20)
(0.022307 -0.170537 3.83852e-20)
(0.493158 -0.631607 0)
(1.02468 -0.803791 0)
(1.59839 -0.81398 0)
(2.17382 -0.750035 -3.72488e-20)
(2.69929 -0.653924 0)
(3.14012 -0.543769 0)
(3.48905 -0.426551 0)
(3.7414 -0.302146 0)
(3.89429 -0.165677 3.63128e-20)
(3.94033 -0.0272256 0)
(3.86996 0.118428 0)
(3.66931 0.285843 0)
(3.34322 0.414744 0)
(2.93088 0.561762 3.47472e-20)
(2.35525 0.754898 0)
(1.64757 0.658103 0)
(1.03949 0.338748 0)
(0.645187 0.160707 0)
(0.420838 0.078712 0)
(0.200257 0.15457 0)
(-0.0603176 0.146995 0)
(-0.136684 -0.0968604 3.25961e-20)
(0.0772306 -0.324629 -3.23306e-20)
(0.129374 -0.323279 3.20588e-20)
(0.302364 -0.542068 3.18197e-20)
(0.586925 -0.543149 0)
(0.375927 0.182485 0)
(-0.429356 0.333746 -3.11492e-20)
(-0.95974 0.361611 -3.09371e-20)
(-1.59859 0.477354 0)
(-2.27518 0.494243 0)
(-2.94229 0.501997 -3.04807e-20)
(-3.59844 0.468182 0)
(-4.20456 0.438195 0)
(-4.77396 0.401916 3.03516e-20)
(-5.29098 0.365291 0)
(-5.76636 0.3282 3.03463e-20)
(-6.19811 0.293709 6.06832e-20)
(-6.59471 0.262763 0)
(-6.95846 0.235513 0)
(-7.29458 0.211099 0)
(-7.6046 0.188895 0)
(-7.89036 0.167565 0)
(-8.1511 0.146525 5.98634e-20)
(-8.38544 0.124752 5.95302e-20)
(-8.59027 0.101613 5.91268e-20)
(-8.76214 0.0767888 0)
(-8.89703 0.0502716 -5.80973e-20)
(-8.99128 0.0222197 0)
(-9.04089 -0.0065866 5.67637e-20)
(-9.04211 -0.0353198 5.5982e-20)
(-8.99718 -0.0640423 0)
(-8.90461 -0.0926821 0)
(-8.76444 -0.121041 0)
(-8.5765 -0.148809 5.22017e-20)
(-8.3414 -0.175644 0)
(-8.06013 -0.201363 0)
(-7.73404 -0.225906 0)
(-7.36462 -0.249394 0)
(-6.9531 -0.272176 0)
(-6.50011 -0.294863 0)
(-6.00521 -0.318323 0)
(-5.46644 -0.343562 0)
(-4.87978 -0.371581 -4.22422e-20)
(-4.23879 -0.40325 0)
(-3.53455 -0.43923 0)
(-2.75654 -0.479912 3.93927e-20)
(-1.89577 -0.525229 3.86263e-20)
(-0.950923 -0.57396 0)
(0.0676276 -0.621515 -3.75515e-20)
(1.1415 -0.644144 3.72489e-20)
(2.24461 -0.63282 0)
(3.31134 -0.564978 -3.72755e-20)
(4.25612 -0.421236 0)
(4.96688 -0.212315 0)
(5.3245 -0.0298372 3.75758e-20)
(5.37599 0.147511 0)
(4.92298 0.30988 -3.66361e-20)
(4.15467 0.413725 0)
(2.92545 0.677438 3.51267e-20)
(1.0726 0.549902 3.45441e-20)
(0.206254 -0.193389 3.41974e-20)
(0.561882 -0.558121 6.77134e-20)
(0.612122 -0.433494 -6.67842e-20)
(0.673144 -0.327037 0)
(1.16175 -0.694985 0)
(1.72348 -0.298124 0)
(-0.331436 0.93515 -6.38871e-20)
(-3.01838 1.13807 -6.37149e-20)
(-4.87855 0.937397 6.44217e-20)
(-6.53534 0.772468 0)
(-7.87964 0.623206 -6.71942e-20)
(-9.02841 0.509528 -6.87334e-20)
(-9.97982 0.416643 -7.01664e-20)
(-10.7795 0.338783 0)
(-11.4321 0.268894 0)
(-11.9509 0.203615 0)
(-12.3358 0.141182 -7.32994e-20)
(-12.5888 0.0813321 0)
(-12.7096 0.0247635 0)
(-12.7003 -0.0279211 7.17219e-20)
(-12.5775 -0.0771707 0)
(-12.3443 -0.1231 0)
(-12.0092 -0.164861 6.66607e-20)
(-11.5792 -0.201743 0)
(-11.0663 -0.233207 0)
(-10.4808 -0.258694 -5.94328e-20)
(-9.83672 -0.27803 -5.68729e-20)
(-9.14677 -0.291139 0)
(-8.42551 -0.297977 5.19436e-20)
(-7.68673 -0.298773 0)
(-6.94455 -0.293812 -4.76208e-20)
(-6.2118 -0.283758 0)
(-5.49994 -0.26943 -4.41463e-20)
(-4.81818 -0.251855 -4.27408e-20)
(-4.17329 -0.232084 0)
(-3.56939 -0.211225 0)
(-3.00818 -0.190417 0)
(-2.48921 -0.170772 0)
(-2.00986 -0.15327 0)
(-1.56468 -0.138665 0)
(-1.14465 -0.127522 0)
(-0.736957 -0.120652 -3.68171e-20)
(-0.326321 -0.118893 3.63716e-20)
(0.102275 -0.122592 0)
(0.558426 -0.129956 0)
(1.04298 -0.136622 0)
(1.54681 -0.13799 0)
(2.05176 -0.132074 6.78951e-20)
(2.53675 -0.120129 0)
(2.98553 -0.104981 -6.61708e-20)
(3.38986 -0.0891472 6.5395e-20)
(3.74735 -0.0740927 0)
(4.05745 -0.0599793 0)
(4.31896 -0.047346 0)
(4.53339 -0.0381573 -6.26938e-20)
(4.70815 -0.0325357 -6.20701e-20)
(4.85353 -0.0309782 0)
(4.98586 -0.0343262 -6.07939e-20)
(5.12155 -0.0388616 -6.01171e-20)
(5.27085 -0.0464245 5.94041e-20)
(5.45007 -0.055606 0)
(5.65631 -0.0592652 0)
(5.88083 -0.061985 5.70615e-20)
(6.11917 -0.0544474 0)
(6.33618 -0.0490372 0)
(6.55441 -0.046349 0)
(6.71752 -0.0163992 0)
(6.81734 -0.01031 -5.28786e-20)
(6.92232 0.0483289 -5.19048e-20)
(6.74372 0.0580818 0)
(6.63567 -0.0758455 -4.9634e-20)
(6.46704 0.303784 0)
(4.70322 0.743656 0)
(2.3894 0.32934 -4.648e-20)
(1.23488 -0.096214 0)
(0.729555 -0.112192 -4.69951e-20)
(0.513607 0.0340704 0)
(0.276159 0.135374 0)
(-0.213713 0.116528 -4.51074e-20)
(-0.604561 0.0395713 0)
(-0.67778 -0.0485309 -4.34045e-20)
(-0.438412 -0.104996 0)
(-0.0266023 -0.109641 0)
(0.399636 -0.0699641 0)
(0.743489 -0.00830011 3.67777e-20)
(0.990012 0.039848 0)
(1.16015 0.0439601 -3.46853e-20)
(1.26923 0.00651235 0)
(1.34491 -0.0433357 0)
(1.444 -0.0873832 0)
(1.67061 -0.12328 0)
(2.09804 -0.124498 0)
(2.64351 -0.0538207 0)
(3.06314 0.0572461 0)
(3.09986 0.108347 5.63405e-20)
(2.8844 0.0962406 0)
(2.52083 0.096009 0)
(0.0658332 0.724222 1.16156e-19)
(0.694401 -0.941302 -1.15082e-19)
(1.27065 -1.86443 0)
(1.77981 -2.11715 7.56817e-20)
(2.22238 -2.0347 0)
(2.61579 -1.82263 3.71541e-20)
(2.96299 -1.57147 -7.45939e-20)
(3.26418 -1.30995 -7.42686e-20)
(3.51336 -1.0422 0)
(3.70458 -0.766643 -7.35646e-20)
(3.83204 -0.477246 -3.63111e-20)
(3.88834 -0.180928 0)
(3.87819 0.125469 0)
(3.80239 0.455739 0)
(3.64188 0.758384 0)
(3.38622 1.05756 -3.46614e-20)
(3.04399 1.39783 0)
(2.63707 1.58713 6.83418e-20)
(2.10552 1.59863 0)
(1.50681 1.31536 0)
(1.04776 0.764399 -6.65932e-20)
(0.684381 0.560662 0)
(0.380542 0.660757 6.55848e-20)
(0.429327 0.396641 -3.25643e-20)
(0.684652 -0.248996 3.23053e-20)
(0.231965 -0.183201 -3.20388e-20)
(-0.914064 0.852327 -3.17666e-20)
(-1.53094 1.05506 0)
(-2.12633 1.27493 0)
(-2.85619 1.45721 3.09327e-20)
(-3.41842 1.56473 -3.09638e-20)
(-4.02316 1.5954 0)
(-4.54483 1.56941 0)
(-5.05818 1.51351 3.02871e-20)
(-5.53269 1.42747 0)
(-5.97978 1.32943 0)
(-6.39443 1.22148 -3.02067e-20)
(-6.78026 1.11716 0)
(-7.1403 1.01907 3.06196e-20)
(-7.47666 0.93212 -6.04622e-20)
(-7.79238 0.855616 0)
(-8.08831 0.788641 0)
(-8.36546 0.728141 -1.21313e-19)
(-8.62219 0.67098 -1.21023e-19)
(-8.8565 0.613643 -1.20624e-19)
(-9.06474 0.553251 6.03829e-20)
(-9.24338 0.487417 -5.94021e-20)
(-9.38855 0.414742 -1.77673e-19)
(-9.49719 0.334786 1.17718e-19)
(-9.56674 0.248004 5.80102e-20)
(-9.5956 0.155486 0)
(-9.5834 0.0590558 -5.67018e-20)
(-9.53034 -0.0393188 5.64313e-20)
(-9.43202 -0.138236 0)
(-9.28887 -0.236695 0)
(-9.10032 -0.333627 0)
(-8.86712 -0.428128 -5.2149e-20)
(-8.58988 -0.519347 0)
(-8.26972 -0.606698 1.00342e-19)
(-7.90794 -0.689922 0)
(-7.50599 -0.769205 9.58302e-20)
(-7.06524 -0.845342 0)
(-6.58648 -0.919949 -9.13196e-20)
(-6.06945 -0.995578 0)
(-5.51203 -1.0756 8.69484e-20)
(-4.90982 -1.16379 -4.26645e-20)
(-4.25587 -1.26381 0)
(-3.54084 -1.37904 -8.09793e-20)
(-2.75358 -1.51261 -3.93368e-20)
(-1.88325 -1.66644 -3.85663e-20)
(-0.925735 -1.83736 0)
(0.108623 -2.01107 -3.82753e-20)
(1.19658 -2.13288 -3.71666e-20)
(2.28036 -2.16045 0)
(3.29771 -1.94621 3.72127e-20)
(4.13073 -1.48765 -7.6155e-20)
(4.78325 -0.906863 0)
(5.07974 -0.305032 -3.75866e-20)
(5.16776 0.279709 0)
(4.95923 0.851388 1.10696e-19)
(4.55893 1.25191 0)
(3.94398 1.65873 -1.05793e-19)
(2.8318 1.7733 -3.44092e-20)
(1.83315 1.28899 3.41922e-20)
(1.26061 0.493061 6.72499e-20)
(1.50267 -0.528234 -6.63834e-20)
(1.44565 -0.35584 0)
(-0.744015 1.19584 0)
(-2.8871 2.29299 0)
(-4.94582 2.76016 1.92314e-19)
(-6.48038 2.55468 6.3211e-20)
(-7.54665 2.20128 -6.40138e-20)
(-8.46828 1.83563 0)
(-9.22004 1.52443 -6.93411e-20)
(-9.89309 1.26878 6.85594e-20)
(-10.4787 1.05823 7.00435e-20)
(-10.991 0.8735 0)
(-11.4231 0.701947 0)
(-11.7698 0.535065 0)
(-12.0266 0.369636 7.33082e-20)
(-12.1884 0.205637 0)
(-12.2541 0.0448313 -1.46446e-19)
(-12.2212 -0.110142 -2.16254e-19)
(-12.077 -0.257711 1.41718e-19)
(-11.8259 -0.395831 0)
(-11.4724 -0.522121 6.74326e-20)
(-11.0266 -0.634084 0)
(-10.4976 -0.729852 1.2454e-19)
(-9.89877 -0.807992 -5.99516e-20)
(-9.24214 -0.867834 -5.731e-20)
(-8.5425 -0.909193 0)
(-7.81358 -0.932174 -1.56104e-19)
(-7.0706 -0.937349 9.95864e-20)
(-6.32794 -0.925882 4.7615e-20)
(-5.59953 -0.899835 0)
(-4.89729 -0.862029 4.41429e-20)
(-4.23075 -0.8157 1.28289e-19)
(-3.60641 -0.764082 0)
(-3.02751 -0.710244 8.10992e-20)
(-2.49443 -0.657108 7.93816e-20)
(-2.00535 -0.607467 7.79309e-20)
(-1.55677 -0.56389 0)
(-1.14297 -0.528562 0)
(-0.755367 -0.503083 0)
(-0.381683 -0.489081 -3.69362e-20)
(-0.00652344 -0.488344 -3.63607e-20)
(0.387372 -0.501585 0)
(0.815029 -0.524941 -7.09633e-20)
(1.28263 -0.547039 -6.99613e-20)
(1.78281 -0.554119 0)
(2.29534 -0.539296 -6.78415e-20)
(2.79596 -0.505537 -1.34142e-19)
(3.2672 -0.460847 6.61212e-20)
(3.70247 -0.411836 6.55073e-20)
(4.10217 -0.361144 0)
(4.46689 -0.309079 0)
(4.795 -0.256842 0)
(5.08367 -0.208508 6.26447e-20)
(5.33109 -0.169371 -6.20877e-20)
(5.54188 -0.143823 -1.22844e-19)
(5.7265 -0.134926 6.07403e-20)
(5.89871 -0.141708 -6.01292e-20)
(6.07719 -0.160984 -5.93471e-20)
(6.27578 -0.186852 0)
(6.4986 -0.20812 0)
(6.74319 -0.221351 5.7072e-20)
(7.00354 -0.221602 0)
(7.26132 -0.206814 0)
(7.49465 -0.177917 -1.0919e-19)
(7.70159 -0.124777 0)
(7.81787 -0.0930122 -5.29643e-20)
(7.91643 -0.0262995 5.18544e-20)
(7.96669 0.115952 0)
(7.79465 0.144627 -4.99663e-20)
(7.76014 0.367686 0)
(7.47993 0.963552 0)
(6.82102 1.38681 4.62436e-20)
(6.20458 1.30818 -9.42262e-20)
(4.46071 0.60136 4.6797e-20)
(2.23706 0.0721953 0)
(1.36923 0.123162 0)
(1.07224 0.211651 -4.525e-20)
(0.876475 0.075137 0)
(0.852981 -0.164274 -4.36151e-20)
(1.03974 -0.324452 0)
(1.37167 -0.351878 0)
(1.70607 -0.293824 0)
(1.92515 -0.228312 -3.67367e-20)
(2.02866 -0.195597 0)
(2.12264 -0.170335 3.46563e-20)
(2.27303 -0.123257 0)
(2.41873 -0.0839335 0)
(2.48646 -0.119641 -6.41483e-20)
(2.55045 -0.252534 6.24783e-20)
(2.76434 -0.398635 0)
(3.18606 -0.418016 0)
(3.71265 -0.249204 0)
(3.94319 0.0131706 -1.69062e-19)
(3.50784 0.229184 0)
(2.50199 0.387378 1.07663e-19)
(0.355456 -1.04072 4.36015e-22)
(0.93637 -2.86041 1.53784e-19)
(1.39623 -3.19514 0)
(1.71071 -2.92538 -1.51925e-19)
(1.92885 -2.52997 0)
(2.12645 -2.15404 0)
(2.32852 -1.8123 -6.46075e-22)
(2.52766 -1.48146 7.43814e-20)
(2.71046 -1.13435 7.4661e-20)
(2.85727 -0.763582 7.3718e-20)
(2.96219 -0.371916 0)
(3.02227 0.039768 0)
(3.02927 0.45622 -7.27415e-20)
(2.9874 0.877112 -1.44072e-19)
(2.89431 1.28388 1.4259e-19)
(2.73719 1.64958 0)
(2.54769 1.9674 1.39378e-19)
(2.29134 2.25748 -6.83445e-20)
(1.90688 2.38472 0)
(1.52007 2.00682 1.34619e-19)
(1.12093 1.45912 6.65096e-20)
(0.603744 1.35982 -1.32331e-19)
(0.490795 0.936371 -6.55631e-20)
(0.549308 0.00350025 0)
(-0.423451 0.758019 1.29007e-19)
(-1.40845 1.60069 1.27675e-19)
(-2.14774 1.94871 0)
(-2.76313 2.09568 1.25654e-19)
(-3.38084 2.291 0)
(-3.92297 2.38378 1.24233e-19)
(-4.40105 2.40746 6.1449e-20)
(-4.87658 2.38061 0)
(-5.31017 2.31884 0)
(-5.74112 2.21509 0)
(-6.13607 2.07881 0)
(-6.51327 1.92465 0)
(-6.8618 1.76732 0)
(-7.19108 1.61836 1.22643e-19)
(-7.49898 1.48193 -1.83399e-19)
(-7.79079 1.3608 0)
(-8.06663 1.25245 0)
(-8.32809 1.15387 0)
(-8.574 1.06002 -1.05955e-21)
(-8.80272 0.966203 1.20916e-19)
(-9.01129 0.867846 2.42104e-19)
(-9.19599 0.761708 -2.41085e-19)
(-9.35291 0.645948 -1.20409e-19)
(-9.47819 0.520293 1.18611e-19)
(-9.5686 0.385555 9.7941e-22)
(-9.62147 0.243358 1.1755e-19)
(-9.63475 0.0956956 0)
(-9.60679 -0.0555407 1.14815e-19)
(-9.53628 -0.20879 8.414e-22)
(-9.42224 -0.362217 0)
(-9.26423 -0.514209 0)
(-9.06201 -0.66337 -1.07451e-19)
(-8.81583 -0.808323 0)
(-8.52637 -0.947912 0)
(-8.19486 -1.0812 1.01558e-19)
(-7.82293 -1.20773 1.97325e-19)
(-7.41259 -1.32772 -9.57667e-20)
(-6.96603 -1.44238 0)
(-6.48531 -1.55421 9.12485e-20)
(-5.97162 -1.66738 0)
(-5.42417 -1.78762 8.83174e-20)
(-4.83935 -1.9216 8.47693e-20)
(-4.2109 -2.07601 -1.67162e-19)
(-3.5307 -2.25737 -8.2628e-20)
(-2.78971 -2.47302 0)
(-1.97809 -2.73068 1.57322e-19)
(-1.08784 -3.02926 0)
(-0.126383 -3.33747 2.29199e-19)
(0.861997 -3.55767 1.52899e-19)
(1.76783 -3.56161 1.53203e-19)
(2.55606 -3.12754 -1.54321e-19)
(3.30562 -2.36843 2.31494e-19)
(3.84195 -1.51892 0)
(4.17855 -0.647401 0)
(4.34217 0.230038 -1.53318e-19)
(4.22887 1.1332 -2.24615e-19)
(3.88504 1.80308 0)
(3.45115 2.37675 7.07545e-20)
(2.92691 2.5454 0)
(1.99807 2.38962 -2.04719e-19)
(1.68837 0.783842 -3.57071e-22)
(0.510446 0.463048 3.00491e-22)
(-1.4055 2.00765 1.31777e-19)
(-3.59758 3.36236 0)
(-5.21222 3.9548 -1.3089e-19)
(-6.24635 3.9465 3.09353e-21)
(-6.82366 3.53973 0)
(-7.34269 3.06364 0)
(-7.83374 2.60326 0)
(-8.38305 2.22509 1.36325e-19)
(-8.94872 1.91122 0)
(-9.52524 1.64232 0)
(-10.0645 1.3924 0)
(-10.5494 1.14485 0)
(-10.9487 0.891253 0)
(-11.2518 0.629866 1.49593e-19)
(-11.4445 0.363898 0)
(-11.524 0.0979223 1.46594e-19)
(-11.4873 -0.162628 1.44616e-19)
(-11.3364 -0.411976 -1.41822e-19)
(-11.0754 -0.645154 0)
(-10.7108 -0.857788 -1.34172e-19)
(-10.2514 -1.04588 0)
(-9.70802 -1.20587 -1.24573e-19)
(-9.09309 -1.33553 1.19407e-19)
(-8.41984 -1.43365 3.44037e-19)
(-7.7019 -1.49984 0)
(-6.95366 -1.53422 3.13525e-19)
(-6.19012 -1.53736 1.00379e-19)
(-5.42695 -1.51103 0)
(-4.67958 -1.45875 1.83821e-19)
(-3.9623 -1.3859 1.77165e-19)
(-3.28737 -1.29908 -2.57021e-19)
(-2.66458 -1.20512 0)
(-2.10047 -1.11038 -8.11365e-20)
(-1.59777 -1.02041 -7.94205e-20)
(-1.15571 -0.93966 -2.34092e-19)
(-0.770246 -0.871242 0)
(-0.433196 -0.817781 0)
(-0.131907 -0.781379 0)
(0.149466 -0.763915 -7.40773e-20)
(0.428004 -0.768209 0)
(0.723198 -0.79641 0)
(1.0566 -0.843263 7.09093e-20)
(1.44508 -0.889364 6.9911e-20)
(1.88797 -0.909302 0)
(2.36236 -0.889619 0)
(2.83502 -0.836534 1.34065e-19)
(3.28038 -0.766721 0)
(3.68876 -0.693681 -1.30798e-19)
(4.06204 -0.621963 -1.29534e-19)
(4.40542 -0.549952 0)
(4.72211 -0.476081 0)
(5.01265 -0.403491 1.25465e-19)
(5.2771 -0.338536 -1.2089e-22)
(5.51688 -0.288102 -1.19199e-22)
(5.73605 -0.260206 0)
(5.94348 -0.257763 2.40449e-19)
(6.15406 -0.277965 0)
(6.38389 -0.315202 0)
(6.64125 -0.351217 0)
(6.92797 -0.373661 -1.1402e-19)
(7.23448 -0.377246 0)
(7.53896 -0.354117 2.21785e-19)
(7.81916 -0.315418 1.0913e-19)
(8.06819 -0.233439 0)
(8.27801 -0.131585 1.05733e-19)
(8.38688 -0.0516123 0)
(8.46679 0.116046 0)
(8.51243 0.28972 2.99563e-19)
(8.39634 0.521866 -1.9546e-19)
(8.31759 1.07494 0)
(8.37215 1.6036 -1.885e-19)
(8.37893 1.68904 9.39349e-20)
(7.78331 1.48227 0)
(6.38392 1.2206 0)
(4.72464 0.892162 0)
(3.60672 0.577334 2.70415e-19)
(3.08255 0.2232 0)
(2.83413 -0.169469 8.6858e-20)
(2.80462 -0.447011 0)
(2.95737 -0.521126 0)
(3.17228 -0.42418 0)
(3.36122 -0.245535 0)
(3.42851 -0.104463 0)
(3.3431 -0.0680439 0)
(3.23273 -0.079473 1.34788e-19)
(3.17241 -0.0721475 0)
(3.10038 -0.101608 6.41171e-20)
(3.02647 -0.258999 -1.87322e-19)
(3.0652 -0.478838 0)
(3.28049 -0.551476 0)
(3.60051 -0.336335 1.15388e-19)
(3.66105 0.09947 1.12758e-19)
(3.04269 0.545072 -1.10012e-19)
(1.87954 0.858213 -1.07597e-19)
(0.317101 -2.82941 -2.34678e-19)
(0.688135 -3.72001 -2.32707e-19)
(0.984907 -3.3611 -1.54772e-19)
(1.19588 -2.97359 -7.76781e-20)
(1.38576 -2.71316 0)
(1.59105 -2.48538 1.52693e-19)
(1.79559 -2.22658 -7.66171e-20)
(1.97947 -1.90893 0)
(2.13354 -1.5188 -7.47587e-20)
(2.2403 -1.07139 0)
(2.30102 -0.588731 1.49118e-19)
(2.33004 -0.0742207 0)
(2.32044 0.459363 7.28805e-20)
(2.2693 0.990776 1.44314e-19)
(2.17926 1.5018 -1.42802e-19)
(2.04282 1.96779 0)
(1.85593 2.40885 -1.39561e-19)
(1.5999 2.79565 0)
(1.32897 2.84323 0)
(1.02736 2.56167 -1.34686e-19)
(0.564719 2.37132 0)
(0.347479 1.81143 -5.99417e-22)
(0.325516 0.952401 0)
(-0.507376 1.41382 0)
(-1.50337 2.35534 5.63066e-22)
(-2.21287 2.79813 -1.27149e-19)
(-2.77591 2.93396 -1.26856e-19)
(-3.33802 3.0761 -1.25289e-19)
(-3.86175 3.16895 0)
(-4.32411 3.17596 -2.48921e-19)
(-4.78296 3.1622 0)
(-5.23249 3.11327 -1.24282e-19)
(-5.65932 3.017 0)
(-6.05998 2.868 0)
(-6.42169 2.68635 1.23933e-19)
(-6.75788 2.49134 0)
(-7.06763 2.29981 -1.23928e-19)
(-7.36262 2.12042 1.43224e-21)
(-7.64463 1.95772 2.46468e-19)
(-7.91926 1.81225 -2.47849e-19)
(-8.18537 1.681 0)
(-8.44295 1.55965 0)
(-8.6888 1.44203 -1.24992e-19)
(-8.92021 1.322 0)
(-9.13311 1.19362 -1.2149e-19)
(-9.32339 1.05255 1.20981e-19)
(-9.48644 0.896193 1.20338e-19)
(-9.61772 0.724007 0)
(-9.71285 0.537133 -1.18609e-19)
(-9.76763 0.337932 -1.17508e-19)
(-9.77801 0.129182 2.35124e-19)
(-9.7413 -0.0862045 -1.14769e-19)
(-9.65525 -0.305101 -1.1312e-19)
(-9.51978 -0.52479 0)
(-9.33549 -0.74266 0)
(-9.10407 -0.956213 1.07388e-19)
(-8.82789 -1.16314 0)
(-8.5099 -1.36136 0)
(-8.1534 -1.54924 -2.01709e-19)
(-7.76178 -1.72581 -1.97186e-19)
(-7.33849 -1.89106 0)
(-6.88707 -2.04634 0)
(-6.41103 -2.1949 0)
(-5.91312 -2.34249 0)
(-5.39387 -2.49743 -1.75004e-19)
(-4.85043 -2.66937 1.72907e-19)
(-4.27719 -2.86712 1.66941e-19)
(-3.66822 -3.09756 3.28745e-19)
(-3.01866 -3.36771 0)
(-2.32242 -3.68635 2.47714e-21)
(-1.57292 -4.05165 0)
(-0.790251 -4.41493 -1.5325e-19)
(-0.0688621 -4.63892 2.70724e-21)
(0.513001 -4.49705 -1.53302e-19)
(1.07367 -3.78517 1.5453e-19)
(1.78799 -2.73823 2.03444e-21)
(2.21365 -1.78666 0)
(2.59136 -0.815224 1.56986e-19)
(2.88268 0.230812 1.53726e-19)
(2.97613 1.31612 3.03249e-19)
(2.75208 2.17812 0)
(2.43574 2.84759 -1.44677e-19)
(2.05985 3.1634 0)
(1.43706 2.84982 2.73647e-19)
(0.705785 1.35064 -1.344e-19)
(-1.16345 2.31169 1.3251e-19)
(-3.20159 3.9788 -1.31039e-19)
(-4.75552 4.84329 -2.64662e-19)
(-5.535 4.92664 1.30638e-19)
(-5.94212 4.58203 -1.31541e-19)
(-6.22379 4.07086 0)
(-6.62142 3.59144 2.75429e-19)
(-7.08053 3.16975 0)
(-7.66295 2.82124 2.83513e-19)
(-8.2723 2.50833 -2.88097e-19)
(-8.89719 2.20696 -2.92707e-19)
(-9.47191 1.89429 2.96978e-19)
(-9.97827 1.56059 3.00498e-19)
(-10.3835 1.2048 0)
(-10.6788 0.832973 1.54196e-19)
(-10.8541 0.454481 0)
(-10.9103 0.0787363 0)
(-10.8486 -0.286479 2.96476e-19)
(-10.6746 -0.63488 0)
(-10.3931 -0.960467 0)
(-10.0112 -1.25743 2.74091e-19)
(-9.53752 -1.52022 0)
(-8.98303 -1.74391 0)