/*--------------------------------*- C++ -*----------------------------------*\
  =========                 |
  \\      /  F ield         | OpenFOAM: The Open Source CFD Toolbox
   \\    /   O peration     | Website:  https://openfoam.org
    \\  /    A nd           | Version:  6
     \\/     M anipulation  |
\*---------------------------------------------------------------------------*/
FoamFile
{
    version     2.0;
    format      ascii;
    class       volVectorField;
    location    "0.35";
    object      UMean;
}
// * * * * * * * * * * * * * * * * * * * * * * * * * * * * * * * * * * * * * //

dimensions      [0 1 -1 0 0 0 0];

internalField   nonuniform List<vector> 
12225
(
(9.83052 0.0197708 0)
(9.53386 0.0335204 0)
(9.23836 0.0364356 0)
(8.93877 0.0376784 0)
(8.64249 0.0388891 0)
(8.35575 0.0398674 0)
(8.08046 0.0403669 0)
(7.81616 0.0406562 0)
(7.56132 0.0406819 0)
(7.31517 0.0409172 0)
(7.07606 0.0409139 0)
(6.84401 0.0415522 0)
(6.61578 0.0418807 0)
(6.39242 0.043606 0)
(6.16638 0.0453047 0)
(5.94196 0.0491664 0)
(5.70362 0.0553952 0)
(5.46048 0.0573717 0)
(10.0132 0.0403691 0)
(10.0769 0.0689076 0)
(10.1195 0.074129 0)
(10.1358 0.0762545 0)
(10.1337 0.0792636 0)
(10.1204 0.0822767 0)
(10.0992 0.0847341 0)
(10.0714 0.0866732 0)
(10.0368 0.0885489 0)
(9.99649 0.0903765 0)
(9.94969 0.0926305 0)
(9.89844 0.0949692 0)
(9.84026 0.0983968 0)
(9.77834 0.102135 0)
(9.70758 0.108411 0)
(9.63238 0.115386 0)
(9.54605 0.12684 0)
(9.44792 0.137275 0)
(9.99975 0.0350265 0)
(10.0321 0.0628448 0)
(10.063 0.0659224 0)
(10.0826 0.0659652 0)
(10.0945 0.0682449 0)
(10.1034 0.0714922 0)
(10.1118 0.0744641 0)
(10.1193 0.077148 0)
(10.1257 0.0798119 0)
(10.1302 0.0828101 0)
(10.133 0.0862198 0)
(10.1334 0.0902905 0)
(10.1324 0.0953019 0)
(10.1285 0.101542 0)
(10.1243 0.110054 0)
(10.1164 0.120415 0)
(10.111 0.134757 0)
(10.1008 0.147867 0)
(10.0087 0.0277175 0)
(10.0322 0.0547153 0)
(10.057 0.0593734 0)
(10.0734 0.0600655 0)
(10.0824 0.0629558 0)
(10.0883 0.0670689 0)
(10.0938 0.0709653 0)
(10.0991 0.0743952 0)
(10.1039 0.07772 0)
(10.1079 0.0812684 0)
(10.1109 0.0853019 0)
(10.1129 0.0899868 0)
(10.1142 0.0956899 0)
(10.115 0.102726 0)
(10.1156 0.11172 0)
(10.1171 0.122933 0)
(10.12 0.136362 0)
(10.1268 0.150895 0)
(9.99809 0.0210786 0)
(10.0165 0.0479439 0)
(10.0386 0.0558182 0)
(10.055 0.0581958 0)
(10.0647 0.0616554 0)
(10.071 0.066199 0)
(10.0763 0.0705573 0)
(10.0815 0.0743601 0)
(10.0862 0.0779405 0)
(10.09 0.0816783 0)
(10.0929 0.0859001 0)
(10.095 0.09078 0)
(10.0963 0.0966629 0)
(10.0974 0.103789 0)
(10.0983 0.11259 0)
(10.1004 0.123176 0)
(10.1035 0.135192 0)
(10.11 0.148113 0)
(9.99597 0.0148485 0)
(10.0096 0.0407535 0)
(10.0282 0.0512081 0)
(10.0436 0.0551333 0)
(10.0533 0.0588559 0)
(10.0595 0.0634322 0)
(10.0646 0.0679909 0)
(10.0694 0.0720895 0)
(10.074 0.075932 0)
(10.0779 0.079918 0)
(10.081 0.0843561 0)
(10.0835 0.0894973 0)
(10.0853 0.0955459 0)
(10.0871 0.102787 0)
(10.0889 0.111314 0)
(10.0917 0.121279 0)
(10.0954 0.132041 0)
(10.1013 0.143218 0)
(9.9997 0.0132911 0)
(10.0098 0.0366338 0)
(10.0252 0.0482587 0)
(10.0393 0.0531747 0)
(10.049 0.0568819 0)
(10.0552 0.0612121 0)
(10.0602 0.0657627 0)
(10.0648 0.0700497 0)
(10.0693 0.0741315 0)
(10.0732 0.0783524 0)
(10.0765 0.0830188 0)
(10.0792 0.0883773 0)
(10.0815 0.0945731 0)
(10.0837 0.101809 0)
(10.0861 0.110059 0)
(10.0893 0.11937 0)
(10.0933 0.129141 0)
(10.0987 0.139082 0)
(10.0026 0.0129547 0)
(10.0103 0.0334345 0)
(10.023 0.045422 0)
(10.0358 0.0511775 0)
(10.0454 0.0550373 0)
(10.052 0.0591953 0)
(10.057 0.063707 0)
(10.0617 0.0681438 0)
(10.0662 0.0724296 0)
(10.0703 0.0768239 0)
(10.0738 0.0816082 0)
(10.0768 0.0870316 0)
(10.0795 0.0931966 0)
(10.0822 0.100248 0)
(10.0852 0.108083 0)
(10.0888 0.116709 0)
(10.093 0.125604 0)
(10.0984 0.134669 0)
(10.0016 0.00974533 0)
(10.0076 0.0287051 0)
(10.0183 0.0411428 0)
(10.0297 0.0480701 0)
(10.039 0.052663 0)
(10.0457 0.0571104 0)
(10.0509 0.0618557 0)
(10.0556 0.0666348 0)
(10.0601 0.0713099 0)
(10.0644 0.0760559 0)
(10.0682 0.0811063 0)
(10.0716 0.0867017 0)
(10.0748 0.0929061 0)
(10.0781 0.0998402 0)
(10.0816 0.107345 0)
(10.0858 0.115464 0)
(10.0904 0.123712 0)
(10.0961 0.132196 0)
(10.0004 0.00421707 0)
(10.005 0.021491 0)
(10.0138 0.0337252 0)
(10.0239 0.0413865 0)
(10.0326 0.0466195 0)
(10.0393 0.0513212 0)
(10.0446 0.0561632 0)
(10.0494 0.0610807 0)
(10.054 0.065953 0)
(10.0586 0.0708883 0)
(10.0628 0.0760673 0)
(10.0668 0.0816995 0)
(10.0707 0.0878345 0)
(10.0747 0.0945624 0)
(10.0789 0.101729 0)
(10.0835 0.109379 0)
(10.0886 0.117114 0)
(10.0943 0.12508 0)
(10.0101 0.0107376 0)
(10.0134 0.0254186 0)
(10.0205 0.0366446 0)
(10.0291 0.0442672 0)
(10.0372 0.0496052 0)
(10.0438 0.0541888 0)
(10.0493 0.0587833 0)
(10.0543 0.0634916 0)
(10.059 0.0682318 0)
(10.0637 0.0730601 0)
(10.0682 0.0781036 0)
(10.0726 0.0835384 0)
(10.0769 0.089397 0)
(10.0813 0.0957509 0)
(10.0859 0.10244 0)
(10.091 0.109523 0)
(10.0963 0.116629 0)
(10.1024 0.123974 0)
(9.99709 0.00370704 0)
(10.0002 0.0169801 0)
(10.0065 0.0277913 0)
(10.0145 0.0357206 0)
(10.0222 0.0415442 0)
(10.0289 0.0464684 0)
(10.0345 0.0512724 0)
(10.0397 0.0561866 0)
(10.0447 0.0611714 0)
(10.0496 0.0662457 0)
(10.0544 0.0714678 0)
(10.0592 0.0769891 0)
(10.0638 0.0828155 0)
(10.0687 0.0890485 0)
(10.0736 0.0955045 0)
(10.0791 0.102311 0)
(10.0846 0.109052 0)
(10.091 0.116074 0)
(10.0015 0.00660277 0)
(10.0038 0.0183218 0)
(10.0092 0.0282283 0)
(10.0162 0.0358941 0)
(10.0233 0.0417721 0)
(10.0297 0.0467393 0)
(10.0354 0.0514717 0)
(10.0406 0.05626 0)
(10.0456 0.0611319 0)
(10.0507 0.066109 0)
(10.0557 0.0712167 0)
(10.0606 0.076565 0)
(10.0656 0.0821462 0)
(10.0706 0.088043 0)
(10.0758 0.0940973 0)
(10.0814 0.100418 0)
(10.0871 0.106664 0)
(10.0933 0.113128 0)
(9.99721 0.00452855 0)
(9.99947 0.0148153 0)
(10.0042 0.0237471 0)
(10.0104 0.0309874 0)
(10.0169 0.0368 0)
(10.0231 0.0417897 0)
(10.0288 0.0464932 0)
(10.0341 0.051205 0)
(10.0393 0.0559887 0)
(10.0444 0.0608801 0)
(10.0496 0.0658784 0)
(10.0549 0.0710772 0)
(10.0602 0.0764403 0)
(10.0657 0.0820664 0)
(10.0712 0.0877721 0)
(10.0771 0.0937225 0)
(10.0831 0.0995266 0)
(10.0896 0.105601 0)
(9.99831 0.00342813 0)
(10.0004 0.0128119 0)
(10.0045 0.0209283 0)
(10.0099 0.0277375 0)
(10.0158 0.0334362 0)
(10.0217 0.038429 0)
(10.0273 0.0431126 0)
(10.0328 0.0477476 0)
(10.0383 0.0524166 0)
(10.0437 0.0571628 0)
(10.0492 0.0619723 0)
(10.0548 0.066913 0)
(10.0604 0.0719403 0)
(10.0661 0.0771478 0)
(10.072 0.0823753 0)
(10.078 0.0877906 0)
(10.0843 0.0930469 0)
(10.0907 0.0985423 0)
(10.0059 0.00134387 0)
(10.0071 0.00949245 0)
(10.0104 0.0165438 0)
(10.0151 0.0226544 0)
(10.0205 0.0279701 0)
(10.0262 0.0327336 0)
(10.0318 0.0372119 0)
(10.0374 0.0416245 0)
(10.0431 0.046065 0)
(10.0488 0.0505848 0)
(10.0546 0.0551568 0)
(10.0605 0.0598241 0)
(10.0665 0.0645223 0)
(10.0727 0.0693383 0)
(10.0789 0.0741136 0)
(10.0853 0.0790296 0)
(10.0918 0.0837462 0)
(10.0985 0.0886869 0)
(9.99778 0.00218059 0)
(9.99865 0.00825007 0)
(10.0016 0.0137622 0)
(10.0059 0.0186936 0)
(10.0111 0.0231425 0)
(10.0166 0.0272759 0)
(10.0223 0.0312487 0)
(10.0281 0.0351862 0)
(10.034 0.0391351 0)
(10.04 0.0431351 0)
(10.0462 0.047162 0)
(10.0526 0.0512617 0)
(10.059 0.0553692 0)
(10.0657 0.0595705 0)
(10.0724 0.0637078 0)
(10.0792 0.0679615 0)
(10.0861 0.0719997 0)
(10.0933 0.0762391 0)
(9.99891 0.00339492 0)
(9.99986 0.00710724 0)
(10.0027 0.0107261 0)
(10.007 0.014171 0)
(10.0121 0.0175003 0)
(10.0177 0.0207855 0)
(10.0236 0.0240597 0)
(10.0296 0.0273509 0)
(10.0358 0.0306548 0)
(10.0421 0.0339967 0)
(10.0486 0.0373563 0)
(10.0552 0.0407756 0)
(10.0619 0.04419 0)
(10.0687 0.0476704 0)
(10.0756 0.0510711 0)
(10.0826 0.054554 0)
(10.0897 0.0578273 0)
(10.0969 0.0612655 0)
(9.99992 0.000107101 0)
(10.0012 0.00185881 0)
(10.0042 0.00370571 0)
(10.0085 0.0057235 0)
(10.0137 0.00792529 0)
(10.0194 0.0102848 0)
(10.0254 0.0127574 0)
(10.0317 0.015314 0)
(10.0381 0.0179164 0)
(10.0447 0.0205628 0)
(10.0515 0.0232177 0)
(10.0583 0.0259044 0)
(10.0652 0.0285633 0)
(10.0723 0.0312575 0)
(10.0793 0.033871 0)
(10.0864 0.036548 0)
(10.0936 0.0390447 0)
(10.1007 0.0416799 0)
(10.0047 -0.00095885 0)
(10.0059 -0.00130058 0)
(10.0092 -0.00122802 0)
(10.0141 -0.000633354 0)
(10.0198 0.000427913 0)
(10.026 0.00182089 0)
(10.0324 0.00340838 0)
(10.039 0.00511453 0)
(10.0457 0.00689937 0)
(10.0526 0.00876213 0)
(10.0596 0.0106691 0)
(10.0667 0.0126227 0)
(10.0739 0.0145634 0)
(10.0811 0.0165286 0)
(10.0883 0.0184269 0)
(10.0955 0.0203663 0)
(10.1027 0.0221634 0)
(10.1098 0.0240597 0)
(10.0036 -0.000504588 0)
(10.0051 -0.00342066 0)
(10.0091 -0.0053633 0)
(10.0147 -0.00625033 0)
(10.0211 -0.00625865 0)
(10.0278 -0.00570192 0)
(10.0345 -0.00485906 0)
(10.0414 -0.00386392 0)
(10.0483 -0.00275343 0)
(10.0555 -0.00151637 0)
(10.0627 -0.000181447 0)
(10.0701 0.00123893 0)
(10.0774 0.00267517 0)
(10.0848 0.00414274 0)
(10.0921 0.00555304 0)
(10.0994 0.00699227 0)
(10.1067 0.00830311 0)
(10.1139 0.00969124 0)
(10.0058 -0.000939286 0)
(10.0083 -0.00618687 0)
(10.0134 -0.0098214 0)
(10.0201 -0.0118105 0)
(10.0274 -0.0125398 0)
(10.0346 -0.0125681 0)
(10.0416 -0.012305 0)
(10.0486 -0.0118942 0)
(10.0557 -0.0113378 0)
(10.063 -0.0106103 0)
(10.0704 -0.00974503 0)
(10.0778 -0.00877415 0)
(10.0852 -0.00777037 0)
(10.0926 -0.00673326 0)
(10.0999 -0.00573616 0)
(10.1072 -0.00471738 0)
(10.1144 -0.00379993 0)
(10.1216 -0.0028291 0)
(10.0002 -0.00363341 0)
(10.0036 -0.0106884 0)
(10.0102 -0.0156215 0)
(10.0182 -0.0181884 0)
(10.0264 -0.0191241 0)
(10.0341 -0.0193419 0)
(10.0413 -0.0193441 0)
(10.0485 -0.0192235 0)
(10.0558 -0.0189413 0)
(10.0633 -0.0184818 0)
(10.0708 -0.0178987 0)
(10.0783 -0.0172367 0)
(10.0858 -0.0165561 0)
(10.0932 -0.0158504 0)
(10.1005 -0.0151725 0)
(10.1078 -0.0144722 0)
(10.1151 -0.0138501 0)
(10.1222 -0.0131882 0)
(10.0056 -0.00647392 0)
(10.0099 -0.0155473 0)
(10.0179 -0.0215429 0)
(10.0275 -0.0243436 0)
(10.0366 -0.0253751 0)
(10.0445 -0.0258837 0)
(10.0518 -0.0262961 0)
(10.0591 -0.0265616 0)
(10.0666 -0.0265967 0)
(10.0742 -0.0264172 0)
(10.0819 -0.0261084 0)
(10.0895 -0.0257288 0)
(10.0971 -0.0253281 0)
(10.1045 -0.0248999 0)
(10.1119 -0.0244826 0)
(10.1192 -0.0240423 0)
(10.1264 -0.0236562 0)
(10.1335 -0.0232408 0)
(9.99963 -0.0069058 0)
(10.0054 -0.018686 0)
(10.0158 -0.0252205 0)
(10.0271 -0.0277519 0)
(10.0369 -0.0287915 0)
(10.0451 -0.0296706 0)
(10.0526 -0.0305144 0)
(10.0602 -0.0311074 0)
(10.0681 -0.0313801 0)
(10.076 -0.031412 0)
(10.0839 -0.0313205 0)
(10.0917 -0.0311665 0)
(10.0993 -0.0309893 0)
(10.1069 -0.0307805 0)
(10.1143 -0.0305767 0)
(10.1217 -0.0303517 0)
(10.129 -0.0301759 0)
(10.1361 -0.0299721 0)
(9.9989 -0.0122889 0)
(10.0072 -0.0271298 0)
(10.0202 -0.0330637 0)
(10.0329 -0.0344699 0)
(10.0429 -0.0352138 0)
(10.051 -0.0363536 0)
(10.0585 -0.0375245 0)
(10.0663 -0.0383404 0)
(10.0743 -0.0387657 0)
(10.0824 -0.0389391 0)
(10.0903 -0.0389901 0)
(10.098 -0.038978 0)
(10.1056 -0.038927 0)
(10.1131 -0.0388418 0)
(10.1205 -0.0387454 0)
(10.1278 -0.0386408 0)
(10.135 -0.0385615 0)
(10.1421 -0.0384883 0)
(9.99623 -0.0139547 0)
(10.0088 -0.0323192 0)
(10.0253 -0.0370314 0)
(10.0392 -0.0371744 0)
(10.0491 -0.0376507 0)
(10.0571 -0.038968 0)
(10.0648 -0.0403425 0)
(10.0729 -0.041333 0)
(10.0812 -0.0419665 0)
(10.0894 -0.042414 0)
(10.0974 -0.0427958 0)
(10.1053 -0.0431459 0)
(10.1131 -0.0434728 0)
(10.1208 -0.043762 0)
(10.1284 -0.0440396 0)
(10.1359 -0.0442901 0)
(10.1434 -0.0445773 0)
(10.1506 -0.0448298 0)
(10.0029 -0.0179369 0)
(10.0228 -0.0390084 0)
(10.0441 -0.0424551 0)
(10.0596 -0.0416479 0)
(10.0702 -0.0416358 0)
(10.0791 -0.0424457 0)
(10.0882 -0.0432199 0)
(10.0978 -0.0436496 0)
(10.1076 -0.0438327 0)
(10.1171 -0.0439501 0)
(10.1265 -0.0440725 0)
(10.1356 -0.0442327 0)
(10.1444 -0.0443893 0)
(10.1531 -0.0445708 0)
(10.1615 -0.0447258 0)
(10.1696 -0.0449317 0)
(10.1777 -0.0451197 0)
(10.1853 -0.0454457 0)
(10.017 -0.030456 0)
(10.0602 -0.0524033 0)
(10.0957 -0.0569727 0)
(10.118 -0.057885 0)
(10.131 -0.0590733 0)
(10.1394 -0.0604625 0)
(10.1453 -0.0615062 0)
(10.1494 -0.062105 0)
(10.1516 -0.0624025 0)
(10.1521 -0.06257 0)
(10.1508 -0.0626661 0)
(10.1482 -0.0627414 0)
(10.1444 -0.0627622 0)
(10.1398 -0.0627837 0)
(10.1341 -0.0627503 0)
(10.1282 -0.0627547 0)
(10.1211 -0.0627218 0)
(10.1143 -0.0627951 0)
(9.90403 -0.00994711 0)
(9.74016 -0.0209872 0)
(9.57763 -0.0240504 0)
(9.41143 -0.0254259 0)
(9.24611 -0.0266802 0)
(9.08626 -0.0278115 0)
(8.93372 -0.0286573 0)
(8.7885 -0.0292129 0)
(8.64991 -0.0295621 0)
(8.51753 -0.0297842 0)
(8.39089 -0.0299246 0)
(8.27002 -0.0300005 0)
(8.1544 -0.0300266 0)
(8.04434 -0.0299999 0)
(7.93877 -0.0299551 0)
(7.83871 -0.0298582 0)
(7.74199 -0.0298072 0)
(7.65137 -0.0296361 0)
(-0.088451 0.0186696 -1.82793e-22)
(-0.172115 -0.0577373 1.86847e-22)
(-0.205079 -0.113135 0)
(-0.194928 -0.171247 0)
(-0.108857 -0.227608 0)
(0.0321918 -0.265284 -1.93636e-22)
(0.201425 -0.280704 0)
(0.384262 -0.279799 0)
(0.571153 -0.267562 0)
(0.754177 -0.246417 0)
(0.924054 -0.219851 2.81651e-22)
(1.07532 -0.192859 0)
(1.20659 -0.166302 0)
(1.31478 -0.137554 0)
(1.39757 -0.10737 0)
(1.4548 -0.0778898 4.79584e-22)
(1.48717 -0.050885 0)
(1.4964 -0.0268326 0)
(1.4849 -0.00462209 0)
(1.4539 0.0167479 0)
(1.404 0.0379692 0)
(1.32937 0.0603195 0)
(1.23367 0.0764767 0)
(1.12049 0.0846964 4.96603e-22)
(0.991693 0.0896204 -4.83094e-22)
(0.850528 0.0838225 4.70651e-22)
(0.700363 0.0692411 4.60966e-22)
(0.544331 0.0572323 0)
(0.385729 0.0447194 0)
(0.232718 0.0484529 -4.57441e-22)
(0.068961 0.0732711 -4.66124e-22)
(-0.0905445 0.0713121 0)
(-0.250567 0.0512379 0)
(-0.398873 0.0380894 -5.24429e-22)
(-0.538869 0.0324898 0)
(-0.676838 0.0456491 0)
(-0.820059 0.0489179 6.05483e-22)
(-0.951854 0.0395685 0)
(-1.08197 0.0353464 6.65083e-22)
(-1.21858 0.0446924 1.39531e-21)
(-1.36048 0.0540672 0)
(-1.50296 0.0532363 0)
(-1.63181 0.0332476 0)
(-1.7356 0.0130643 0)
(-1.82385 0.00893354 0)
(-1.89135 0.00200177 1.79119e-21)
(-1.96481 -0.00775492 1.83867e-21)
(-2.02142 -0.0158774 1.87873e-21)
(-2.07879 -0.0113977 0)
(-2.16135 0.00900606 -1.92884e-21)
(-2.24898 0.0139116 0)
(-2.32539 0.00836641 1.96143e-21)
(-2.39826 -0.00205005 1.97214e-21)
(-2.46035 0.00296307 0)
(-2.5417 0.00119946 0)
(-2.61689 0.00664228 0)
(-2.70697 0.0128531 1.95933e-21)
(-2.79801 0.0110162 0)
(-2.87872 0.00773317 0)
(-2.9607 0.00599475 0)
(-3.03981 0.0192437 0)
(-3.13338 0.0264233 0)
(-3.2299 0.0240267 0)
(-3.31766 0.0174878 0)
(-3.38604 0.00474104 0)
(-3.44325 0.000379325 -2.0113e-21)
(-3.49337 -0.00382932 0)
(-3.53225 -0.00957344 0)
(-3.56101 -0.0175465 2.03225e-21)
(-3.58745 -0.0216482 2.02249e-21)
(-3.60802 -0.0286761 0)
(-3.62069 -0.0216984 -1.97162e-21)
(-3.65541 -0.00556268 1.93286e-21)
(-3.6948 0.00112026 0)
(-3.73887 0.00170081 -1.8536e-21)
(-3.78636 -0.00173239 0)
(-3.82815 -0.00318496 0)
(-3.88691 0.00712205 1.74526e-21)
(-3.95403 0.0108935 0)
(-4.02296 0.00276732 -1.68549e-21)
(-4.06127 -0.00259819 0)
(-4.09976 -0.0148094 1.62278e-21)
(-4.10879 -0.0149841 1.58487e-21)
(-4.14222 0.000415716 1.54098e-21)
(-4.15247 -0.00668336 2.98776e-21)
(-4.14875 -0.011311 -2.8873e-21)
(-4.1382 -0.00914123 0)
(-4.13964 -0.00551255 0)
(-4.13936 -0.00903265 0)
(-4.12332 -0.0152954 -2.43849e-21)
(-4.10063 -0.018759 -2.32093e-21)
(-4.07902 -0.0202103 2.1979e-21)
(-4.04417 -0.0193135 0)
(-4.04069 -0.00993862 -1.94298e-21)
(-4.03817 -0.016466 -1.82546e-21)
(-4.00175 -0.0261799 -1.71419e-21)
(-3.94517 -0.0326731 0)
(-3.87466 -0.0349466 0)
(-3.79806 -0.0390024 0)
(-3.72156 -0.0403832 -1.08794e-21)
(-3.62732 -0.0514688 0)
(-3.51585 -0.0492945 0)
(-3.44249 -0.0403609 3.77955e-22)
(-3.36928 -0.0387775 0)
(-3.28777 -0.0427849 0)
(-3.19698 -0.0374496 -3.27332e-22)
(-3.14435 -0.0344841 0)
(-3.08418 -0.0413522 0)
(-3.01012 -0.0431582 8.50025e-22)
(-2.92992 -0.0439761 9.80509e-22)
(-2.83741 -0.0467868 0)
(-2.73127 -0.0516074 -1.21561e-21)
(-2.60674 -0.0573562 0)
(-2.46787 -0.0610581 1.45823e-21)
(-2.32265 -0.0625842 0)
(-2.16983 -0.0645271 1.73576e-21)
(-2.00684 -0.0663956 1.8891e-21)
(-1.83825 -0.0671029 0)
(-1.66703 -0.0666023 0)
(-1.49551 -0.0665431 0)
(-1.33216 -0.0615823 0)
(-1.16313 -0.064222 0)
(-0.996874 -0.0503609 0)
(-0.901332 -0.0301857 0)
(-0.812388 -0.0269772 3.01821e-21)
(-0.72081 -0.0237319 -3.06931e-21)
(-0.63667 -0.0245926 0)
(-0.549472 -0.0307923 0)
(-0.453867 -0.0335147 0)
(-0.34844 -0.0308969 0)
(-0.252334 -0.0288668 -6.24536e-21)
(-0.175333 -0.0281477 0)
(-0.0787259 -0.0283644 6.33546e-21)
(-0.0496669 -0.00633236 -6.36521e-21)
(-0.0934291 0.00780654 0)
(-0.121262 0.0036111 0)
(-0.130317 0.00829484 0)
(-0.191499 0.0133929 5.91013e-21)
(-0.216035 0.00303732 5.7509e-21)
(-0.194847 -0.00452568 0)
(-0.158216 -0.0069003 5.56222e-21)
(-0.111624 -0.0107914 5.55654e-21)
(-0.0380669 -0.0195203 -5.6043e-21)
(0.0442871 -0.0234378 0)
(0.113128 -0.0228852 0)
(0.183533 -0.0244205 -5.92087e-21)
(0.265457 -0.0266675 0)
(0.357921 -0.0275549 0)
(0.453504 -0.0276902 0)
(0.552363 -0.0284039 0)
(0.652529 -0.028284 6.85013e-21)
(0.756636 -0.0280579 7.07091e-21)
(0.859721 -0.0261263 0)
(0.970655 -0.0280215 7.47262e-21)
(1.0818 -0.0289442 0)
(1.16772 -0.0250456 0)
(1.23519 -0.0230789 7.75558e-21)
(1.31098 -0.022679 0)
(1.39783 -0.0206139 7.65771e-21)
(1.48402 -0.0165381 0)
(1.56045 -0.0116988 0)
(1.62032 -0.00685187 7.36257e-21)
(1.66051 -0.00360661 0)
(1.69214 -0.00330282 7.1339e-21)
(1.73186 -0.00450363 0)
(1.77584 -0.00558079 0)
(1.82 -0.00749016 0)
(1.86544 -0.0101291 -6.86118e-21)
(1.91393 -0.0107071 0)
(1.95911 -0.00886126 6.82953e-21)
(1.99506 -0.00539122 0)
(2.01418 -0.00179863 0)
(2.02296 0.00171145 0)
(2.01766 0.00323803 0)
(2.01434 0.00724736 0)
(1.97856 0.0107387 0)
(1.94363 0.0190465 0)
(1.83901 0.0174662 -1.2748e-20)
(1.81457 0.0207594 0)
(1.64888 0.00574683 0)
(-0.031565 0.269477 5.94709e-22)
(-0.0399033 0.158939 -6.07328e-22)
(-0.00619414 0.0285714 0)
(0.115355 -0.141647 4.60066e-22)
(0.290018 -0.323262 0)
(0.480699 -0.473698 1.92316e-22)
(0.669717 -0.567898 -5.36002e-22)
(0.853463 -0.610275 -5.80597e-22)
(1.02639 -0.608133 0)
(1.18369 -0.574418 -7.12597e-22)
(1.32132 -0.51958 -2.80542e-22)
(1.43576 -0.451268 0)
(1.52622 -0.376708 0)
(1.5896 -0.298376 0)
(1.62755 -0.219641 0)
(1.6473 -0.143604 -4.78129e-22)
(1.64985 -0.0718309 0)
(1.63352 -0.00526801 1.2096e-21)
(1.59796 0.0554999 0)
(1.54569 0.1112 0)
(1.47759 0.16306 -1.21043e-21)
(1.38859 0.219815 0)
(1.27872 0.275301 1.16861e-21)
(1.15568 0.322442 -4.94131e-22)
(1.02409 0.354998 4.80388e-22)
(0.876034 0.379448 -4.67718e-22)
(0.707371 0.407362 -4.57822e-22)
(0.525431 0.426802 0)
(0.332266 0.430791 0)
(0.136765 0.42796 4.54208e-22)
(-0.062757 0.408728 -6.2907e-22)
(-0.245862 0.364205 0)
(-0.424701 0.352344 0)
(-0.607748 0.349485 5.21707e-22)
(-0.778333 0.324582 0)
(-0.938029 0.297663 0)
(-1.0916 0.274042 -6.02784e-22)
(-1.22502 0.255518 0)
(-1.36467 0.25991 8.59752e-22)
(-1.50048 0.268763 -1.39018e-21)
(-1.62657 0.271776 0)
(-1.74197 0.25756 0)
(-1.86612 0.239732 -3.57751e-21)
(-1.98712 0.209704 -3.70217e-21)
(-2.09078 0.158646 -3.81878e-21)
(-2.2032 0.120479 2.13816e-21)
(-2.31194 0.128933 -1.83399e-21)
(-2.41846 0.147029 -5.97441e-21)
(-2.50292 0.143494 4.16548e-21)
(-2.57886 0.138946 1.92423e-21)
(-2.64677 0.124668 0)
(-2.71916 0.123423 -1.95718e-21)
(-2.80772 0.124752 2.32561e-21)
(-2.88826 0.125436 0)
(-2.99606 0.144723 0)
(-3.11347 0.154008 0)
(-3.23149 0.154961 -1.95514e-21)
(-3.35467 0.166273 0)
(-3.4654 0.16029 4.2314e-21)
(-3.56789 0.147866 0)
(-3.67242 0.154811 4.23175e-21)
(-3.75348 0.149846 0)
(-3.8133 0.136514 -4.26112e-21)
(-3.85888 0.112589 0)
(-3.89416 0.083764 4.31186e-21)
(-3.92103 0.0576404 -2.32679e-21)
(-3.93762 0.0363651 0)
(-3.94773 0.020594 -4.35125e-21)
(-3.95673 0.0114029 -2.02997e-21)
(-3.97764 0.0150324 -2.02033e-21)
(-4.01216 0.0281052 0)
(-4.04924 0.0409762 -2.216e-21)
(-4.09662 0.0477276 -1.93117e-21)
(-4.14646 0.0504192 0)
(-4.20963 0.0622158 1.8515e-21)
(-4.26823 0.0729509 -3.89519e-21)
(-4.31714 0.0735588 0)
(-4.3818 0.079091 -1.74294e-21)
(-4.42777 0.0708081 0)
(-4.45593 0.0541285 5.31277e-21)
(-4.46648 0.0336261 0)
(-4.50612 0.0368497 -5.10177e-21)
(-4.51266 0.0237796 -1.5831e-21)
(-4.50347 -9.05804e-05 1.76316e-21)
(-4.47225 -0.0306328 3.42292e-21)
(-4.45242 -0.0348095 -3.31636e-21)
(-4.42303 -0.0388242 0)
(-4.3931 -0.0450036 0)
(-4.36525 -0.0404067 0)
(-4.33958 -0.0390724 7.70322e-21)
(-4.30116 -0.0489421 2.31911e-21)
(-4.27415 -0.0458053 -2.19618e-21)
(-4.25717 -0.0373245 0)
(-4.23793 -0.0477293 -2.36426e-21)
(-4.19633 -0.074606 1.82463e-21)
(-4.12813 -0.101987 1.71331e-21)
(-4.04532 -0.122865 0)
(-3.94983 -0.134751 0)
(-3.8513 -0.142968 0)
(-3.74283 -0.155662 1.08794e-21)
(-3.65491 -0.144622 0)
(-3.56879 -0.129852 -1.61436e-21)
(-3.4907 -0.127778 -1.50073e-21)
(-3.40413 -0.126895 6.35333e-22)
(-3.34399 -0.111117 0)
(-3.28541 -0.102723 4.5943e-23)
(-3.23739 -0.104797 0)
(-3.16344 -0.115893 -1.01765e-21)
(-3.07174 -0.127386 4.70524e-22)
(-2.96224 -0.143529 6.15527e-22)
(-2.83495 -0.16276 0)
(-2.69035 -0.181371 3.32265e-21)
(-2.53281 -0.195376 -2.36528e-21)
(-2.36696 -0.204349 -1.45719e-21)
(-2.19708 -0.210774 0)
(-2.01993 -0.21627 -1.73454e-21)
(-1.83731 -0.219589 -5.44403e-21)
(-1.65363 -0.220137 0)
(-1.47112 -0.216972 -4.24961e-21)
(-1.2938 -0.209215 -4.5968e-21)
(-1.11978 -0.201802 -4.92626e-21)
(-0.986078 -0.178546 0)
(-0.85617 -0.149807 0)
(-0.727941 -0.134624 0)
(-0.597736 -0.125987 2.82876e-21)
(-0.473443 -0.118174 3.06684e-21)
(-0.352322 -0.121089 0)
(-0.23436 -0.128033 6.05055e-21)
(-0.125764 -0.124746 6.05889e-21)
(-0.0112215 -0.115575 0)
(0.100358 -0.104034 6.24004e-21)
(0.184485 -0.0885446 1.22552e-20)
(0.200274 -0.0484164 -6.32846e-21)
(0.167403 -0.0107196 -5.92349e-21)
(0.162343 -0.00536284 0)
(0.158849 0.00129767 0)
(0.156156 0.00552754 0)
(0.166922 -0.00717221 -5.90618e-21)
(0.215771 -0.0299594 5.27976e-21)
(0.276876 -0.0479571 1.08279e-20)
(0.345498 -0.0624634 -5.55658e-21)
(0.415632 -0.0736955 5.20442e-21)
(0.498068 -0.0861343 5.59798e-21)
(0.582515 -0.0920512 0)
(0.667533 -0.0943211 0)
(0.767532 -0.0998988 -5.58724e-21)
(0.877732 -0.105542 0)
(0.995457 -0.108967 0)
(1.11475 -0.110037 1.2527e-20)
(1.23831 -0.111093 0)
(1.36248 -0.111411 6.57917e-21)
(1.48877 -0.10968 -7.0633e-21)
(1.61039 -0.105575 0)
(1.72911 -0.103469 7.23518e-21)
(1.82813 -0.0961669 0)
(1.91045 -0.0872025 0)
(1.99312 -0.0872248 -7.74818e-21)
(2.08606 -0.0924941 1.5183e-20)
(2.18051 -0.0935278 -7.65039e-21)
(2.27251 -0.0857658 0)
(2.35655 -0.0720571 0)
(2.42471 -0.0570298 7.15162e-21)
(2.4772 -0.046203 0)
(2.52434 -0.0430839 6.92888e-21)
(2.57277 -0.0450792 0)
(2.6152 -0.0476399 0)
(2.6608 -0.0482021 0)
(2.70964 -0.0482015 6.85503e-21)
(2.75537 -0.0470405 0)
(2.79333 -0.0434649 -6.82345e-21)
(2.81796 -0.0368846 0)
(2.82926 -0.0292247 0)
(2.8419 -0.0212256 1.32778e-20)
(2.84702 -0.0148021 -1.31354e-20)
(2.85288 -0.00366326 0)
(2.82582 0.00981544 0)
(2.79394 0.028013 0)
(2.71414 0.0323521 3.77949e-20)
(2.70874 0.0374708 0)
(2.60408 0.0267916 -2.47325e-20)
(0.0216212 0.269418 3.25001e-23)
(0.0894249 0.119694 8.73416e-22)
(0.225 -0.157583 0)
(0.420842 -0.466182 -9.89488e-22)
(0.637148 -0.734468 0)
(0.83705 -0.915048 0)
(1.00222 -0.990941 -2.033e-22)
(1.14044 -0.986316 5.78658e-22)
(1.25109 -0.922713 9.05452e-22)
(1.33749 -0.821386 7.11127e-22)
(1.398 -0.700061 0)
(1.43488 -0.569323 0)
(1.45201 -0.439137 -1.23302e-21)
(1.45269 -0.316678 -2.59271e-21)
(1.43793 -0.203288 2.69729e-21)
(1.41124 -0.0985656 0)
(1.37646 -0.00203056 2.836e-21)
(1.33038 0.0860782 -1.20912e-21)
(1.27411 0.164644 0)
(1.20545 0.241143 2.87596e-21)
(1.11815 0.32795 1.20917e-21)
(1.01922 0.415498 -2.81557e-21)
(0.911332 0.491775 -1.1664e-21)
(0.795049 0.549215 0)
(0.660869 0.606284 2.66889e-21)
(0.514132 0.665204 2.62469e-21)
(0.362669 0.711044 0)
(0.206946 0.742806 2.56944e-21)
(0.0450783 0.758725 0)
(-0.118539 0.758021 2.58506e-21)
(-0.289243 0.75032 1.08726e-21)
(-0.47691 0.74142 0)
(-0.659106 0.715387 0)
(-0.839096 0.682299 0)
(-1.00302 0.640585 0)
(-1.1531 0.598356 0)
(-1.30905 0.571702 0)
(-1.4516 0.541871 3.38517e-21)
(-1.58268 0.509303 -5.0396e-21)
(-1.70442 0.49025 0)
(-1.81621 0.477997 0)
(-1.92459 0.463296 0)
(-2.03662 0.444264 -4.79129e-22)
(-2.14522 0.409788 3.69948e-21)
(-2.26663 0.376501 8.10979e-21)
(-2.4022 0.361694 -8.32768e-21)
(-2.52798 0.343069 -4.50579e-21)
(-2.6283 0.305155 4.09899e-21)
(-2.72445 0.27351 4.9602e-22)
(-2.81102 0.259688 4.71332e-21)
(-2.91086 0.263732 0)
(-3.00738 0.271072 4.77129e-21)
(-3.12072 0.288745 4.84242e-22)
(-3.24704 0.317772 0)
(-3.37398 0.354127 0)
(-3.49738 0.363326 -4.74288e-21)
(-3.60853 0.352553 0)
(-3.71445 0.332794 0)
(-3.81011 0.310922 5.14183e-21)
(-3.89132 0.287669 9.35873e-21)
(-3.95074 0.259075 -4.23126e-21)
(-3.98718 0.220861 0)
(-4.00305 0.177168 4.26256e-21)
(-4.00879 0.134883 0)
(-4.01659 0.104525 5.17761e-21)
(-4.02714 0.0825404 4.33853e-21)
(-4.03992 0.0630794 -9.51362e-21)
(-4.05389 0.0487213 -5.12768e-21)
(-4.07968 0.0531148 0)
(-4.11651 0.0681309 9.32835e-21)
(-4.157 0.0827657 0)
(-4.20394 0.0980486 1.32721e-20)
(-4.26087 0.114675 8.94539e-21)
(-4.31131 0.123706 8.80668e-21)
(-4.36416 0.13285 -8.66812e-21)
(-4.40764 0.138935 1.24261e-20)
(-4.44803 0.140099 0)
(-4.48839 0.137237 0)
(-4.50095 0.111655 -8.11219e-21)
(-4.49542 0.0746189 -1.15927e-20)
(-4.497 0.0526118 0)
(-4.49283 0.0357229 3.4833e-21)
(-4.46599 0.00663406 0)
(-4.42361 -0.0338941 -1.05371e-20)
(-4.38897 -0.0558049 6.09019e-22)
(-4.3544 -0.0588738 -6.00807e-22)
(-4.31059 -0.0635811 6.58175e-21)
(-4.26748 -0.070176 0)
(-4.22013 -0.0716623 -6.08991e-21)
(-4.1739 -0.078702 5.64839e-22)
(-4.13932 -0.0734748 0)
(-4.11858 -0.0615692 0)
(-4.09101 -0.0629348 0)
(-4.04569 -0.0881678 4.31211e-21)
(-3.98025 -0.127439 0)
(-3.90019 -0.166111 0)
(-3.80878 -0.195509 0)
(-3.71872 -0.209628 0)
(-3.62478 -0.223489 0)
(-3.53702 -0.230943 3.07697e-21)
(-3.46623 -0.211005 0)
(-3.38313 -0.197822 1.61925e-21)
(-3.30366 -0.194553 1.12677e-21)
(-3.23432 -0.175107 -6.39923e-22)
(-3.18375 -0.151254 0)
(-3.12999 -0.145058 2.7732e-22)
(-3.06407 -0.16099 0)
(-2.97237 -0.184229 1.01632e-21)
(-2.86501 -0.210174 -1.31914e-21)
(-2.7371 -0.241421 -3.77388e-21)
(-2.5946 -0.273656 0)
(-2.43787 -0.302096 -5.41483e-21)
(-2.27213 -0.322993 -1.51643e-21)
(-2.09979 -0.337614 0)
(-1.92333 -0.348111 -5.09612e-21)
(-1.74168 -0.355182 -5.76035e-21)
(-1.55942 -0.357975 1.00166e-20)
(-1.37914 -0.356015 0)
(-1.20175 -0.348996 4.24474e-21)
(-1.0321 -0.336159 4.59194e-21)
(-0.886292 -0.310794 1.42599e-20)
(-0.752979 -0.277618 0)
(-0.605281 -0.251287 0)
(-0.455061 -0.232572 0)
(-0.312096 -0.215297 5.29823e-21)
(-0.179753 -0.200405 0)
(-0.054259 -0.200698 0)
(0.0592961 -0.20319 -6.04611e-21)
(0.156474 -0.192264 -6.05477e-21)
(0.256776 -0.17224 0)
(0.344031 -0.142313 0)
(0.367271 -0.0887924 -1.22462e-20)
(0.341688 -0.0286102 0)
(0.328982 0.00125944 1.22754e-20)
(0.353831 0.00697148 1.14073e-20)
(0.369318 0.0118892 0)
(0.39591 0.00313953 0)
(0.44758 -0.0235989 -1.05832e-20)
(0.518802 -0.0542628 -6.68361e-22)
(0.585924 -0.0773126 -6.16294e-22)
(0.6607 -0.0958005 0)
(0.737156 -0.110365 -2.0954e-20)
(0.820673 -0.124687 0)
(0.902207 -0.132544 0)
(0.995696 -0.139166 0)
(1.10591 -0.149359 1.1493e-20)
(1.2221 -0.158395 0)
(1.34332 -0.164798 -2.33372e-20)
(1.46759 -0.168855 -1.25184e-20)
(1.59863 -0.17227 0)
(1.73209 -0.173065 -1.34126e-20)
(1.86668 -0.169178 0)
(1.99562 -0.160707 0)
(2.11452 -0.150838 -4.33441e-20)
(2.21287 -0.135493 2.92435e-20)
(2.30868 -0.123135 0)
(2.41283 -0.122613 2.9676e-20)
(2.52086 -0.126199 -1.51723e-20)
(2.61989 -0.124264 0)
(2.70592 -0.114489 0)
(2.77846 -0.099136 0)
(2.83888 -0.0821335 -4.28625e-20)
(2.8963 -0.0685289 0)
(2.95766 -0.0623623 -1.40462e-20)
(3.01955 -0.0607415 0)
(3.07411 -0.0596781 0)
(3.12202 -0.0588129 0)
(3.16403 -0.0577367 0)
(3.20105 -0.052445 0)
(3.23123 -0.0424672 0)
(3.24981 -0.0302721 -2.64058e-20)
(3.25597 -0.0197648 0)
(3.25963 -0.0110413 -1.32706e-20)
(3.25472 -0.00246176 3.88766e-20)
(3.24576 0.0133563 0)
(3.2141 0.0371277 0)
(3.17882 0.0606483 -2.47327e-20)
(3.11868 0.0719838 -2.50453e-20)
(3.10401 0.076209 2.42212e-20)
(3.03163 0.0832547 2.47185e-20)
(0.0398857 0.0649428 -1.40288e-21)
(0.20006 -0.260352 -1.45342e-21)
(0.42543 -0.670879 -1.11168e-21)
(0.648901 -0.986217 -7.50069e-22)
(0.842021 -1.18482 0)
(0.984645 -1.2582 1.69906e-21)
(1.07002 -1.21375 -1.18104e-21)
(1.12212 -1.10782 0)
(1.15264 -0.965948 -9.05393e-22)
(1.16449 -0.806844 0)
(1.16608 -0.646404 2.70475e-21)
(1.15951 -0.492032 0)
(1.14488 -0.345793 1.23385e-21)
(1.12045 -0.209525 2.59458e-21)
(1.08372 -0.0848189 -2.69933e-21)
(1.03727 0.0262575 0)
(0.984196 0.125266 -2.83811e-21)
(0.921609 0.223544 0)
(0.849256 0.321446 0)
(0.762214 0.425089 -2.87675e-21)
(0.665327 0.528341 0)
(0.562232 0.61979 -5.05621e-22)
(0.451538 0.700398 0)
(0.329896 0.780992 0)
(0.20119 0.858346 5.31513e-22)
(0.0712741 0.917973 -2.62055e-21)
(-0.0617297 0.960177 -3.13139e-21)
(-0.195576 0.987131 -2.56429e-21)
(-0.331847 1.00014 0)
(-0.4798 1.01034 -5.70984e-21)
(-0.63831 1.02617 0)
(-0.796843 1.02316 -3.23029e-21)
(-0.95349 0.998517 0)
(-1.1116 0.962667 0)
(-1.26255 0.911222 3.51309e-21)
(-1.41674 0.869194 0)
(-1.56234 0.822946 -3.75854e-21)
(-1.69374 0.767933 5.12119e-22)
(-1.82477 0.730137 7.55043e-21)
(-1.95138 0.707558 -8.35187e-21)
(-2.07277 0.694045 0)
(-2.18429 0.668669 0)
(-2.29063 0.633144 -5.13298e-21)
(-2.40075 0.599026 0)
(-2.52696 0.583911 -4.29153e-21)
(-2.63782 0.546338 4.40437e-21)
(-2.73284 0.493421 4.50558e-21)
(-2.82105 0.444153 0)
(-2.9163 0.425227 -4.66145e-21)
(-3.01188 0.419866 -4.71423e-21)
(-3.13814 0.443504 1.06545e-20)
(-3.27439 0.477379 -4.77145e-21)
(-3.40307 0.485723 -4.77771e-21)
(-3.5269 0.493016 0)
(-3.63792 0.50801 0)
(-3.72724 0.501668 4.74288e-21)
(-3.80881 0.484047 0)
(-3.88349 0.453934 0)
(-3.94181 0.410135 -9.37336e-21)
(-3.98453 0.35973 -9.36224e-21)
(-4.00765 0.302965 0)
(-4.01871 0.243697 0)
(-4.02669 0.192701 0)
(-4.03792 0.157752 0)
(-4.051 0.133343 -9.50035e-21)
(-4.06724 0.113693 1.0442e-20)
(-4.08578 0.0947133 9.52191e-21)
(-4.10895 0.08815 1.98461e-20)
(-4.14149 0.0994084 0)
(-4.18109 0.119871 8.31318e-22)
(-4.22338 0.142493 0)
(-4.26254 0.162007 -9.09085e-21)
(-4.29597 0.173239 8.271e-22)