/*--------------------------------*- C++ -*----------------------------------*\
  =========                 |
  \\      /  F ield         | OpenFOAM: The Open Source CFD Toolbox
   \\    /   O peration     | Website:  https://openfoam.org
    \\  /    A nd           | Version:  6
     \\/     M anipulation  |
\*---------------------------------------------------------------------------*/
FoamFile
{
    version     2.0;
    format      ascii;
    class       volScalarField;
    location    "0.35";
    object      k_0;
}
// * * * * * * * * * * * * * * * * * * * * * * * * * * * * * * * * * * * * * //

dimensions      [0 2 -2 0 0 0 0];

internalField   nonuniform List<scalar> 
12225
(
0.000240233
0.000191341
0.000174821
0.000168164
0.000132051
6.66376e-05
3.8771e-05
3.35381e-05
3.69421e-05
5.86087e-05
8.37015e-05
9.50239e-05
9.87761e-05
0.000100569
0.000104212
0.000120965
0.000183131
0.000427817
2.38944e-05
2.75674e-05
3.63935e-05
4.03089e-05
3.92264e-05
3.19373e-05
2.56071e-05
2.376e-05
2.3821e-05
2.55393e-05
3.16434e-05
4.55732e-05
5.80278e-05
6.62712e-05
7.01025e-05
7.40151e-05
8.22361e-05
0.000107415
2.00612e-05
1.64185e-05
1.49567e-05
1.53603e-05
1.63969e-05
1.65392e-05
1.63855e-05
1.61306e-05
1.60826e-05
1.61815e-05
1.66536e-05
1.79496e-05
2.1001e-05
2.44826e-05
2.74741e-05
2.97388e-05
3.14734e-05
3.49119e-05
2.00259e-05
1.99712e-05
2.006e-05
2.0116e-05
2.00796e-05
1.97473e-05
1.91385e-05
1.83898e-05
1.69086e-05
1.2059e-05
8.01331e-06
7.58204e-06
8.86042e-06
1.28181e-05
1.58833e-05
1.78861e-05
1.88963e-05
1.9641e-05
2.25008e-05
2.10978e-05
2.1556e-05
2.75112e-05
3.48076e-05
3.57725e-05
3.37435e-05
2.85611e-05
2.50998e-05
2.36595e-05
2.29031e-05
2.14904e-05
2.03694e-05
1.98681e-05
1.97271e-05
1.97344e-05
1.97469e-05
1.97726e-05
2.80978e-05
2.62956e-05
2.18961e-05
2.27235e-05
2.84842e-05
4.38049e-05
5.04183e-05
4.99611e-05
4.6222e-05
4.41638e-05
4.36867e-05
4.28378e-05
3.83459e-05
2.93127e-05
2.43684e-05
2.20403e-05
2.11143e-05
2.08978e-05
2.09035e-05
2.26759e-05
2.23046e-05
2.45258e-05
3.99036e-05
5.03756e-05
4.90187e-05
4.56196e-05
4.58817e-05
4.95445e-05
5.38014e-05
5.48778e-05
5.38166e-05
4.70614e-05
3.60283e-05
2.89081e-05
2.48575e-05
2.27167e-05
2.30594e-05
2.28986e-05
2.35754e-05
2.54826e-05
2.47336e-05
2.34376e-05
2.36141e-05
2.61941e-05
3.49893e-05
5.91358e-05
0.000146905
0.000271323
0.000323366
0.000324743
0.000289113
0.000177525
9.89318e-05
5.82292e-05
2.13692e-05
2.70397e-05
2.75911e-05
2.5026e-05
2.25178e-05
2.1766e-05
2.17241e-05
2.21691e-05
2.41963e-05
3.19961e-05
6.22402e-05
0.000148501
0.000209599
0.000227619
0.000223412
0.000184356
0.000116966
7.45105e-05
2.01756e-05
2.39806e-05
2.95872e-05
2.8057e-05
2.38316e-05
2.2934e-05
2.31002e-05
2.47468e-05
3.03643e-05
5.15063e-05
0.000103589
0.00013406
0.000139628
0.000135507
0.000114581
8.38582e-05
6.06908e-05
4.6046e-05
2.04474e-05
2.19538e-05
2.55949e-05
3.728e-05
3.98447e-05
3.57236e-05
2.87662e-05
2.7576e-05
2.93763e-05
4.17929e-05
9.79299e-05
0.00015856
0.000175779
0.000173001
0.000145879
9.3453e-05
6.07287e-05
4.35881e-05
2.02734e-05
2.58997e-05
2.9243e-05
2.95338e-05
2.93665e-05
2.86637e-05
2.59427e-05
2.45335e-05
2.44953e-05
2.58196e-05
3.40825e-05
5.01313e-05
5.87228e-05
6.04493e-05
5.8391e-05
4.83258e-05
3.86452e-05
3.35378e-05
2.17707e-05
2.31287e-05
2.26083e-05
2.23368e-05
2.26358e-05
2.36877e-05
2.44593e-05
2.4862e-05
2.50656e-05
2.52605e-05
2.56678e-05
2.62398e-05
2.6645e-05
2.68837e-05
2.71765e-05
2.77661e-05
3.005e-05
3.2362e-05
2.06323e-05
2.05413e-05
2.07132e-05
2.1056e-05
2.14466e-05
2.18085e-05
2.23743e-05
2.36795e-05
2.65277e-05
2.85145e-05
2.92278e-05
2.92464e-05
2.86052e-05
2.69498e-05
2.64708e-05
2.65277e-05
2.69929e-05
2.86412e-05
2.62355e-05
2.07774e-05
2.02914e-05
2.11949e-05
2.53398e-05
2.92162e-05
3.02116e-05
3.00104e-05
2.82369e-05
2.59533e-05
2.48539e-05
2.45983e-05
2.46363e-05
2.48466e-05
2.56228e-05
2.65031e-05
2.68516e-05
2.68668e-05
2.00279e-05
2.01263e-05
2.02432e-05
2.04853e-05
2.13561e-05
2.27026e-05
2.32808e-05
2.33705e-05
2.32593e-05
2.27493e-05
2.25285e-05
2.26096e-05
2.31135e-05
2.31834e-05
2.30058e-05
2.30472e-05
2.38282e-05
2.75563e-05
2.07835e-05
2.04687e-05
2.03929e-05
2.03887e-05
2.04173e-05
2.0632e-05
2.17269e-05
2.42697e-05
2.5731e-05
2.61817e-05
2.61833e-05
2.58469e-05
2.44836e-05
2.29576e-05
2.22415e-05
2.2074e-05
2.2129e-05
2.27117e-05
2.34448e-05
2.61759e-05
2.45315e-05
2.16001e-05
2.0951e-05
2.09127e-05
2.10117e-05
2.11357e-05
2.12265e-05
2.13305e-05
2.15283e-05
2.22124e-05
2.31054e-05
2.3288e-05
2.31248e-05
2.29876e-05
2.30965e-05
2.37256e-05
2.0593e-05
2.04185e-05
2.04095e-05
2.09521e-05
2.27909e-05
2.37454e-05
2.38561e-05
2.35502e-05
2.25709e-05
2.20208e-05
2.18368e-05
2.18264e-05
2.18879e-05
2.19487e-05
2.19486e-05
2.18989e-05
2.18778e-05
2.19299e-05
2.04787e-05
2.0225e-05
2.04441e-05
2.07288e-05
2.12935e-05
2.21845e-05
2.24552e-05
2.23778e-05
2.20025e-05
2.13808e-05
2.09921e-05
2.08105e-05
2.07684e-05
2.07812e-05
2.08978e-05
2.14683e-05
2.27554e-05
2.3552e-05
2.2051e-05
2.09355e-05
2.11194e-05
2.11336e-05
2.11716e-05
2.12672e-05
2.12171e-05
2.09795e-05
2.07555e-05
2.06619e-05
2.06369e-05
2.06388e-05
2.06714e-05
2.08069e-05
2.12529e-05
2.17648e-05
2.21082e-05
2.22942e-05
2.08538e-05
2.10868e-05
2.10602e-05
2.11008e-05
2.14095e-05
2.28866e-05
2.42406e-05
2.42432e-05
2.32352e-05
2.16552e-05
2.08879e-05
2.05783e-05
2.05074e-05
2.05252e-05
2.06522e-05
2.08886e-05
2.10221e-05
2.10844e-05
2.37776e-05
2.40481e-05
2.18923e-05
2.09892e-05
2.10316e-05
2.17505e-05
2.2138e-05
2.20088e-05
2.16111e-05
2.14259e-05
2.13606e-05
2.1349e-05
2.13708e-05
2.15734e-05
2.22313e-05
2.25169e-05
2.24522e-05
2.2013e-05
2.05594e-05
2.28953e-05
2.35127e-05
2.3048e-05
2.16561e-05
2.14404e-05
2.15369e-05
2.15096e-05
2.15157e-05
2.15297e-05
2.15266e-05
2.15223e-05
2.1537e-05
2.16625e-05
2.17348e-05
2.16039e-05
2.14658e-05
2.14168e-05
2.31539e-05
2.29979e-05
2.27263e-05
2.19457e-05
2.17606e-05
2.26989e-05
2.30297e-05
2.20809e-05
2.10457e-05
2.06835e-05
2.05915e-05
2.05889e-05
2.06507e-05
2.08772e-05
2.10692e-05
2.11885e-05
2.12465e-05
2.12601e-05
2.0539e-05
2.10353e-05
2.09513e-05
2.09769e-05
2.11703e-05
2.15174e-05
2.13593e-05
2.06756e-05
2.03433e-05
2.02806e-05
2.03071e-05
2.05113e-05
2.08261e-05
2.101e-05
2.11113e-05
2.11546e-05
2.11592e-05
2.11432e-05
2.01568e-05
2.2202e-05
2.34484e-05
2.33945e-05
2.21732e-05
2.05757e-05
1.983e-05
1.95815e-05
1.95583e-05
1.96099e-05
1.97402e-05
1.97611e-05
1.96799e-05
1.91266e-05
1.86025e-05
1.83152e-05
1.79519e-05
1.76277e-05
2.00474e-05
1.85583e-05
1.85987e-05
1.82441e-05
1.68136e-05
1.59356e-05
1.58274e-05
1.59294e-05
1.64382e-05
1.68922e-05
1.69591e-05
1.69e-05
1.6584e-05
1.60493e-05
1.5801e-05
1.57584e-05
1.58042e-05
1.60777e-05
2.01341e-05
2.55037e-05
4.00717e-05
4.40603e-05
4.30146e-05
3.82782e-05
3.70192e-05
3.84136e-05
4.15667e-05
4.19999e-05
4.12782e-05
3.75907e-05
3.33554e-05
3.17162e-05
3.15633e-05
3.21682e-05
3.50222e-05
4.41831e-05
3.75934e-05
0.000135626
0.000358893
0.000409672
0.000370124
0.000230819
0.000157124
0.000133565
0.000126351
0.000118338
9.7398e-05
7.65518e-05
6.80099e-05
6.71628e-05
7.09143e-05
9.25267e-05
0.000125246
0.000143496
0.0843371
0.196322
0.215239
0.212555
0.203441
0.183139
0.163568
0.152881
0.144431
0.140184
0.136059
0.133699
0.134218
0.135848
0.139466
0.144621
0.144123
0.14021
0.138342
0.126514
0.117557
0.134619
0.177679
0.176571
0.167095
0.202055
0.214565
0.226507
0.410526
0.411541
0.383687
0.370381
0.3223
0.278759
0.261559
0.247424
0.226856
0.217438
0.207957
0.199709
0.195724
0.189517
0.18672
0.182498
0.178657
0.173722
0.168433
0.162236
0.155003
0.148594
0.141385
0.136031
0.130442
0.127012
0.121413
0.116868
0.111945
0.107797
0.10408
0.100925
0.0982227
0.0960011
0.0946091
0.0943112
0.0944256
0.0950158
0.0962645
0.0980335
0.100714
0.104854
0.111302
0.120681
0.127527
0.143437
0.156985
0.170577
0.173746
0.170695
0.166502
0.173265
0.200211
0.294968
0.376591
0.58716
0.667517
0.674306
0.672708
0.643123
0.73446
0.436091
0.19217
0.139261
0.122044
0.104941
0.0920455
0.0761033
0.0672409
0.0563146
0.0508404
0.0447678
0.0420329
0.0407295
0.0404618
0.0406915
0.0408236
0.0410421
0.0411983
0.0414809
0.0417105
0.0419398
0.0423098
0.0426112
0.043012
0.0432668
0.0436482
0.0438947
0.0440996
0.0443446
0.044557
0.0447432
0.0449133
0.0450625
0.0452122
0.0453728
0.0455099
0.0456002
0.0455679
0.045339
0.0449834
0.0444851
0.043858
0.0430401
0.0420099
0.0408362
0.0394497
0.0378138
0.0360919
0.034495
0.0331319
0.0320826
0.0313993
0.03103
0.0309303
0.030947
0.0309404
0.0309336
0.0308516
0.0306678
0.030493
0.03032
0.0298499
0.0287128
0.0287887
0.031603
0.0409132
0.0396445
0.0826076
0.232399
0.258452
0.239062
0.211434
0.193767
0.180315
0.167588
0.161471
0.162849
0.166704
0.176025
0.198264
0.260072
0.292791
0.29282
0.275019
0.250772
0.244379
0.25853
0.344704
0.413875
0.409729
0.296534
0.11851
0.228623
0.187449
0.136282
0.103575
0.0923498
0.0931695
0.0962616
0.100568
0.105209
0.108894
0.110412
0.111825
0.113322
0.114999
0.11858
0.122023
0.12642
0.132576
0.130786
0.118129
0.113269
0.121321
0.111333
0.117736
0.232203
0.370169
0.39395
0.401207
0.371541
0.33646
0.291778
0.23134
0.204835
0.176756
0.150167
0.131631
0.117173
0.106769
0.0965276
0.091024
0.0831068
0.0793035
0.0733344
0.068676
0.0641023
0.0588013
0.054506
0.0499904
0.0464054
0.0437914
0.0410681
0.0393794
0.0376138
0.0359299
0.0350802
0.0344526
0.0340199
0.0338252
0.0337822
0.0341693
0.0352804
0.0367517
0.038628
0.0411117
0.044433
0.0491071
0.055667
0.0651951
0.0786427
0.100494
0.127742
0.169608
0.211415
0.231736
0.240684
0.254069
0.258292
0.255573
0.239605
0.21624
0.230919
0.28038
0.43976
0.451406
0.491075
0.652892
0.661146
0.520945
0.21654
0.112915
0.0819488
0.0677873
0.0553433
0.0492484
0.0436137
0.0409981
0.038519
0.0373379
0.0360917
0.0355438
0.0349724
0.0345294
0.0343057
0.0341471
0.0340866
0.0340754
0.034241
0.0345502
0.034982
0.0356294
0.0366172
0.0378022
0.0391401
0.0406182
0.0420748
0.0432551
0.0441128
0.0449562
0.0456535
0.0462655
0.0468104
0.0472825
0.0477721
0.0484778
0.049127
0.0495932
0.049537
0.0493545
0.0493596
0.0494845
0.0496219
0.0496664
0.0496446
0.0493069
0.0484781
0.0475117
0.046433
0.045215
0.0440462
0.0430272
0.0420341
0.0412673
0.0407148
0.0402674
0.0398334
0.0393409
0.0386355
0.0381313
0.0376388
0.0371236
0.0368714
0.0365469
0.0364432
0.0366557
0.0357566
0.0434508
0.0732097
0.151431
0.212591
0.205411
0.158673
0.121919
0.102161
0.0888547
0.0802165
0.0739346
0.0700807
0.0697731
0.0714603
0.0792099
0.0806389
0.0750903
0.0587319
0.0539117
0.0590347
0.0858872
0.182607
0.234358
0.214412
0.152152
0.112564
0.0701543
0.0603164
0.0639226
0.0727619
0.0858475
0.0968275
0.107567
0.118156
0.124042
0.124579
0.123719
0.120811
0.118624
0.116156
0.114221
0.114476
0.11846
0.124615
0.11649
0.0893381
0.0802035
0.104199
0.274079
0.34364
0.364237
0.365362
0.327559
0.267001
0.196056
0.14036
0.11427
0.087308
0.0664363
0.0537496
0.0422172
0.0364097
0.0301289
0.0271005
0.0235559
0.0215687
0.0193282
0.0180455
0.0163458
0.0154723
0.0143863
0.0138418
0.0135135
0.0134169
0.0140045
0.0149921
0.0160444
0.0167377
0.0172157
0.0174788
0.0176458
0.0176917
0.0177041
0.0177456
0.0179042
0.0181074
0.018366
0.0188581
0.0197886
0.0214863
0.0244716
0.0293762
0.0385074
0.0539107
0.0760111
0.115373
0.187226
0.23103
0.244523
0.252181
0.266749
0.289418
0.29427
0.290139
0.260329
0.234067
0.240191
0.282594
0.354659
0.568219
0.606691
0.409661
0.177378
0.0897136
0.0591251
0.0470897
0.0399439
0.0347661
0.0318645
0.0293786
0.0282391
0.0273502
0.0269656
0.0268313
0.0269464
0.0275376
0.0279276
0.0282173
0.0283193
0.0283217
0.02804
0.0277046
0.0272106
0.0267314
0.0261449
0.0257117
0.025488
0.0255658
0.0259446
0.0270101
0.0287804
0.031138
0.0335399
0.0356527
0.0375433
0.0392288
0.0405741
0.041573
0.0422964
0.0426654
0.0430533
0.0434407
0.0437892
0.0443593
0.0451388
0.0456486
0.0456169
0.0452672
0.0444039
0.0424924
0.0401097
0.0375925
0.035265
0.0336328
0.0327073
0.0323511
0.0321934
0.031845
0.031584
0.0312168
0.0309072
0.0304703
0.0294995
0.0286722
0.0277506
0.0274105
0.0277288
0.0284515
0.0303676
0.0314433
0.0328912
0.0371881
0.0495387
0.0886894
0.156912
0.156768
0.14555
0.114929
0.0873615
0.0630029
0.0487694
0.0459028
0.0454855
0.0427124
0.039603
0.0377766
0.033611
0.0312758
0.0331881
0.0458491
0.0856051
0.185602
0.24072
0.212059
0.0778055
0.0715626
0.0469811
0.0521018
0.0668441
0.0888419
0.109624
0.126842
0.138653
0.14443
0.145293
0.144688
0.142957
0.1392
0.131472
0.121116
0.113238
0.111447
0.115225
0.118226
0.101875
0.074069
0.088126
0.232386
0.320025
0.335108
0.331211
0.275159
0.214108
0.146166
0.0946293
0.0712209
0.052799
0.0379108
0.03098
0.0255202
0.0223794
0.0206779
0.019028
0.0182434
0.0171843
0.0166331
0.015757
0.015302
0.0148329
0.0146825
0.0146198
0.0146077
0.0146237
0.0146872
0.0147902
0.0149002
0.01501
0.0151075
0.0151802
0.0152196
0.0152331
0.0152329
0.0151542
0.014957
0.0146979
0.0142856
0.0136493
0.0129206
0.0122653
0.0120458
0.0123142
0.0135591
0.0174622
0.0282013
0.0566769
0.111618
0.191702
0.231609
0.243076
0.252301
0.271268
0.305261
0.316698
0.315017
0.302112
0.248567
0.236835
0.256264
0.421747
0.544112
0.396295
0.167487
0.0819075
0.0518738
0.0405982
0.0354478
0.0322465
0.0307234
0.0299421
0.029573
0.0294852
0.0301713
0.0314512
0.0328173
0.0342429
0.0350902
0.0354726
0.0355776
0.0351724
0.0343897
0.0333398
0.0320088
0.0304605
0.0289172
0.0271297
0.0257384
0.0245044
0.0237027
0.0228132
0.0222193
0.0218215
0.0219663
0.0229482
0.0248049
0.0267389
0.0289839
0.0309975
0.0331648
0.0349802
0.0366089
0.037714
0.038584
0.0392477
0.039909
0.0404339
0.0408667
0.0417503
0.0430085
0.0439839
0.0440028
0.0437384
0.0430553
0.0418261
0.0405956
0.0387655
0.0370395
0.0342147
0.0316896
0.0307606
0.0305885
0.030599
0.0306393
0.0305322
0.0299538
0.0292396
0.0290124
0.0290161
0.0291583
0.0299479
0.0315908
0.0322895
0.0332729
0.0354281
0.0424548
0.061358
0.108397
0.114909
0.107222
0.0815975
0.0537324
0.0349995
0.0250807
0.0214155
0.0200172
0.0198682
0.0206879
0.0214966
0.022245
0.0285868
0.0660048
0.160844
0.224912
0.240412
0.178209
0.0653274
0.0666177
0.0385174
0.0561964
0.0825365
0.106823
0.129403
0.145029
0.153796
0.155152
0.154305
0.152108
0.150361
0.146424
0.13503
0.12113
0.111611
0.108831
0.11012
0.101438
0.0758882
0.0793281
0.18142
0.292419
0.3126
0.30571
0.249473
0.185683
0.128561
0.0730852
0.0504214
0.038618
0.0287425
0.0241983
0.0220063
0.0206278
0.0197881
0.0190755
0.0183538
0.0178536
0.0171521
0.0166575
0.0159584
0.0154987
0.0150782
0.0149933
0.0149828
0.0150069
0.0151624
0.0155137
0.0158607
0.0161885
0.0164793
0.0167074
0.0168372
0.016896
0.0169065
0.0168019
0.0166757
0.0162288
0.0157492
0.0150673
0.0140104
0.0129019
0.0115375
0.0106836
0.0104021
0.01041
0.011759
0.0176711
0.0399226
0.0959908
0.186201
0.226511
0.237548
0.235601
0.257999
0.31323
0.329601
0.327607
0.306714
0.243561
0.226261
0.26212
0.465186
0.443314
0.188687
0.0858749
0.0509987
0.0389948
0.0342688
0.0321948
0.0313046
0.030993
0.0309803
0.0322702
0.0348255
0.038643
0.0430819
0.0460102
0.0483791
0.049483
0.0499352
0.0499572
0.0488898
0.047367
0.0451928
0.0429196
0.0402645
0.0375233
0.0347487
0.0318929
0.0288824
0.0264144
0.0242483
0.0224204
0.0210569
0.0200208
0.0193109
0.0193577
0.0206658
0.022647
0.0248033
0.0267734
0.0290246
0.0314965
0.0336775
0.0353893
0.0367049
0.0377225
0.0384202
0.0386353
0.0385799
0.0382808
0.0373074
0.0346579
0.0301928
0.0256398
0.0215556
0.0190653
0.0167796
0.0158428
0.0160943
0.017227
0.0208339
0.0263195
0.029703
0.0315591
0.0315713
0.0310946
0.0298522
0.0280856
0.024791
0.0233323
0.0233153
0.0240798
0.0268432
0.0305059
0.032589
0.0344151
0.0388485
0.0544938
0.0674499
0.0669348
0.0611185
0.0471948
0.0322159
0.0202692
0.013114
0.00989302
0.00916624
0.00945491
0.0104711
0.0124479
0.0218738
0.0741447
0.177148
0.227486
0.222969
0.128002
0.061836
0.06544
0.0308483
0.0702713
0.0992512
0.129881
0.149175
0.162206
0.169775
0.16958
0.166298
0.159895
0.152497
0.142631
0.130012
0.117528
0.107722
0.102156
0.0932667
0.0786789
0.0766577
0.136485
0.261576
0.288803
0.289409
0.236693
0.172089
0.12398
0.0662267
0.0422195
0.0315227
0.0261114
0.0231849
0.0219597
0.0213805
0.0208824
0.020575
0.0204152
0.0203313
0.0203122
0.0202736
0.0202661
0.0202917
0.0203995
0.0205895
0.0209493
0.0214471
0.0220183
0.0226632
0.0231949
0.0236641
0.0239808
0.0241741
0.0243068
0.0243592
0.0243274
0.0240822
0.0238904
0.0236372
0.0229752
0.0222784
0.0211754
0.0195241
0.0175395
0.0148399
0.0121855
0.0107715
0.0103013
0.0105969
0.0132231
0.0240627
0.0640425
0.161002
0.224162
0.236698
0.225789
0.221176
0.291765
0.32843
0.32434
0.29259
0.221458
0.225921
0.337744
0.442921
0.253585
0.104181
0.0556047
0.0401246
0.034883
0.0329208
0.0321693
0.0318798
0.0325655
0.0350847
0.0407385
0.0487972
0.0535427
0.0576218
0.0595757
0.0605377
0.0608512
0.0605626
0.0590336
0.0577211
0.0554515
0.0529731
0.0492285
0.0460595
0.0423591
0.0398023
0.0379655
0.0359116
0.0337713
0.0309969
0.0275754
0.0240985
0.0212629
0.0192096
0.0178784
0.017158
0.0171445
0.0183985
0.0205565
0.0222274
0.0239925
0.0265845
0.0294904
0.0322351
0.0343641
0.0357678
0.0364714
0.036576
0.0361467
0.0337929
0.02682
0.0204285
0.0160602
0.0133419
0.0122829
0.012242
0.0127637
0.0151697
0.0233012
0.0413878
0.0630419
0.0769407
0.0836256
0.0836788
0.0820145
0.077233
0.0706148
0.0633926
0.0507211
0.0371186
0.0282949
0.0256345
0.0256574
0.0266476
0.0302247
0.0327137
0.0378845
0.0449191
0.0451814
0.0436491
0.0402258
0.0321437
0.0212466
0.0129725
0.00786294
0.00554941
0.0052254
0.00553009
0.00721349
0.0181573
0.08022
0.180736
0.215736
0.185573
0.0977601
0.0603581
0.0640538
0.0277693
0.0823419
0.109268
0.137023
0.154641
0.168713
0.176618
0.176606
0.173439
0.164993
0.150577
0.133337
0.119216
0.107838
0.0962561
0.0853987
0.0786595
0.0774506
0.106928
0.226348
0.265296
0.272335
0.23145
0.160692
0.122924
0.0694852
0.0401564
0.0295095
0.0251754
0.0233893
0.0227016
0.0224468
0.0224571
0.0233034
0.024308
0.0248288
0.0254389
0.0257241
0.0260307
0.0264751
0.0268834
0.0274281
0.0278808
0.0283908
0.0288481
0.0293204
0.0296267
0.0298648
0.0299619
0.0299631
0.0296915
0.0294039
0.0289825
0.0283424
0.0277208
0.0271528
0.0266109
0.0259242
0.0254665
0.0248868
0.0241386
0.0231189
0.0214621
0.0189781
0.0153452
0.0127463
0.0117849
0.0123731
0.0177439
0.0417166
0.12675
0.218197
0.241455
0.226725
0.212962
0.22962
0.278811
0.286587
0.238772
0.211473
0.24573
0.380754
0.384305
0.146513
0.0678789
0.0436867
0.0362386
0.0337916
0.0329592
0.0326719
0.0335092
0.0369124
0.0451877
0.0539024
0.0585969
0.0631123
0.0653856
0.0663916
0.0667246
0.0665473
0.0649033
0.0636255
0.0619932
0.0596605
0.0576133
0.0535898
0.0494326
0.0448622
0.041757
0.0399863
0.0383986
0.0368549
0.0353071
0.0337973
0.0314567
0.0275731
0.0232204
0.0197627
0.0174003
0.0161258
0.01565
0.0158815
0.0176415
0.0194937
0.0210831
0.0239669
0.0275674
0.0310229
0.0334221
0.0344611
0.0345928
0.0341612
0.0316022
0.0240693
0.0176204
0.0138439
0.0121076
0.0119063
0.0126909
0.0170978
0.0315959
0.0710146
0.113078
0.135565
0.141837
0.141234
0.139657
0.138292
0.135805
0.13124
0.127543
0.122066
0.110927
0.0818024
0.0489394
0.0329182
0.0286635
0.0287095
0.0294263
0.0322183
0.0355046
0.0359054
0.0357293
0.0348082
0.0310738
0.0219403
0.0140217
0.00898901
0.00629701
0.0052051
0.0051669
0.00630106
0.0171921
0.083965
0.176027
0.193991
0.151243
0.0853646
0.0599555
0.063059
0.0299264
0.0866928
0.111451
0.137982
0.156427
0.175716
0.18325
0.183124
0.178514
0.167219
0.148769
0.127559
0.111185
0.0981861
0.0867671
0.0804434
0.0795603
0.0978144
0.193676
0.243031
0.254235
0.227565
0.153161
0.115778
0.0781914
0.0419151
0.0293383
0.0251389
0.0238061
0.0234462
0.0233426
0.0241879
0.0258946
0.0269382
0.0274299
0.027812
0.0283415
0.0286686
0.0291989
0.029839
0.0306845
0.0316063
0.032572
0.0336117
0.0345525
0.0354318
0.0360886
0.0364995
0.0366362
0.0363221
0.0357414
0.0347218
0.0334727
0.0319604
0.0303351
0.0291306
0.0280238
0.0270585
0.0264321
0.0258484
0.0252584
0.02461
0.0236473
0.0224897
0.0209222
0.018782
0.0156067
0.0138802
0.0152512
0.0234737
0.0629696
0.190035
0.247417
0.255233
0.214474
0.205702
0.214223
0.221561
0.213389
0.219182
0.309147
0.374338
0.265552
0.0945264
0.0515112
0.0388385
0.0349998
0.0337553
0.0333325
0.0338508
0.0371623
0.044934
0.0544363
0.0608194
0.0651973
0.0689034
0.0704992
0.0711967
0.071359
0.0705546
0.068706
0.0675773
0.0654887
0.0642084
0.0626891
0.0596729
0.0544168
0.0482739
0.0437822
0.0412758
0.0397478
0.0382279
0.036699
0.0352613
0.0341556
0.032875
0.0304809
0.0260247
0.0212657
0.017779
0.0157729
0.014985
0.0148516
0.0152238
0.016376
0.0184525
0.0221205
0.026655
0.0306048
0.0328323
0.0334193
0.0331933
0.0312153
0.0242054
0.0174387
0.0140018
0.0133069
0.0139812
0.0188624
0.0381328
0.097531
0.143288
0.160562
0.161532
0.156114
0.148099
0.144938
0.143944
0.142359
0.139675
0.137875
0.137375
0.136186
0.1323
0.119633
0.0793462
0.0456713
0.0331501
0.0306918
0.0311333
0.0326615
0.0336004
0.033813
0.0331422
0.0292044
0.0211035
0.0149312
0.0108392
0.00783377
0.00583458
0.00536976
0.00626382
0.0168564
0.084858
0.168611
0.176827
0.127718
0.0810134
0.0605746
0.0624052
0.0383446
0.086889
0.107948
0.130022
0.157595
0.184028
0.191245
0.191821
0.187039
0.174228
0.151327
0.12584
0.108036
0.0957144
0.0879305
0.0863477
0.10421
0.175646
0.22137
0.234599
0.219064
0.144982
0.107397
0.0817165
0.0467775
0.0304477
0.025387
0.0240531
0.0238466
0.0240425
0.0253163
0.0275569
0.0284607
0.0289252
0.0291821
0.0298528
0.030627
0.0317253
0.0330673
0.0348025
0.0369727
0.0394541
0.0423016
0.0451142
0.0472722
0.0493432
0.0504518
0.0509942
0.051127
0.0502277
0.0489332
0.0465874
0.0438232
0.0404599
0.0369219
0.0338836
0.0309554
0.0290003
0.0275156
0.026464
0.0257613
0.0251939
0.0243971
0.0235046
0.0223683
0.0209983
0.0194355
0.0172659
0.0155088
0.0176426
0.0321754
0.106941
0.241491
0.276899
0.25646
0.209987
0.202493
0.210973
0.218162
0.258465
0.341488
0.353697
0.166459
0.0688961
0.0441997
0.0369856
0.034736
0.0340067
0.0340352
0.0362421
0.0421187
0.0518278
0.060494
0.0656523
0.0701925
0.0733987
0.0748631
0.0755142
0.0756434
0.0745414
0.0724164
0.0705409
0.0679547
0.066802
0.065886
0.0642311
0.0606546
0.0531663
0.0466796
0.0428052
0.0406381
0.0393894
0.0377002
0.0356655
0.0344111
0.0336777
0.032974
0.031844
0.0285015
0.0229504
0.0185292
0.0158715
0.0147326
0.0144201
0.0144447
0.0149172
0.0166979
0.0214457
0.0267155
0.0303451
0.0317923
0.0318736
0.0307631
0.0249094
0.0184694
0.0162105
0.016283
0.0194547
0.0360711
0.0939544
0.149028
0.172456
0.175645
0.170989
0.153169
0.136881
0.127694
0.123803
0.120521
0.118621
0.118798
0.119737
0.12312
0.128238
0.128224
0.12351
0.0998774
0.055322
0.0374926
0.0329518
0.0329723
0.0336289
0.0338659
0.0329416
0.0278496
0.0201444
0.0145279
0.0116208
0.00922423
0.00673244
0.00576136
0.0064205
0.0161172
0.0821619
0.160685
0.163517
0.113548
0.0806341
0.0617863
0.0625288
0.0497073
0.0812402
0.100665
0.126968
0.16205
0.18782
0.194672
0.195892
0.193878
0.183907
0.161796
0.131522
0.114589
0.107239
0.10869
0.132775
0.176293
0.202783
0.213972
0.202656
0.134995
0.0964542
0.0762489
0.0535514
0.0328855
0.0260144
0.0242103
0.0239144
0.024282
0.025788
0.0285694
0.0296319
0.0300782
0.0303963
0.0313987
0.0329917
0.0352115
0.0384256
0.0429705
0.0476009
0.0525595
0.0561643
0.0595124
0.0613114
0.0633792
0.0643634
0.064932
0.0650965
0.0644854
0.063499
0.0615544
0.0590847
0.0557558
0.0515455
0.0470454
0.0418679
0.0365123
0.0328925
0.0302142
0.0281311
0.0266076
0.0257588
0.0249362
0.0240412
0.0229546
0.0216082
0.0200177
0.0187126
0.0175101
0.0165022
0.0192824
0.0418048
0.154162
0.280447
0.304524
0.260082
0.222385
0.219506
0.245004
0.315088
0.34383
0.303155
0.11645
0.0562114
0.0407903
0.0362676
0.0349326
0.0347415
0.0356068
0.0387264
0.0463791
0.0561959
0.0633464
0.06814
0.0732218
0.0764937
0.0780242
0.0787213
0.0788825
0.0779402
0.07612
0.0734094
0.0700877
0.0680566
0.0671526
0.0659622
0.0634199
0.0573245
0.0493971
0.0436351
0.0408446
0.0396882
0.0385001
0.0360513
0.0336851
0.0328361
0.032697
0.0327341
0.0327093
0.0307035
0.0245083
0.0193025
0.0161559
0.0147019
0.0142741
0.0142756
0.0146853
0.0166758
0.0227024
0.0281133
0.0307096
0.0311332
0.0303488
0.0255846
0.0205064
0.0193466
0.0204171
0.0291746
0.0692104
0.130825
0.170659
0.185232
0.185929
0.176737
0.154276
0.135797
0.122261
0.113059
0.10708
0.103675
0.102154
0.101698
0.101724
0.103274
0.112381
0.118138
0.115706
0.0997208
0.0573025
0.0394017
0.0348242
0.0345208
0.0345312
0.0334185
0.0277352
0.0194978
0.014036
0.0114043
0.00983077
0.00751901
0.00625565
0.00668127
0.0149769
0.0761827
0.152537
0.153616
0.106529
0.0829447
0.0642398
0.0632133
0.0564918
0.0787237
0.0978917
0.126535
0.164015
0.189049
0.195699
0.197168
0.196546
0.191097
0.178455
0.160368
0.15271
0.151562
0.159763
0.174899
0.186156
0.192878
0.178502
0.119817
0.0840821
0.0667969
0.0536742
0.036504
0.0270082
0.0242984
0.0237881
0.0241585
0.0256234
0.0289798
0.0304185
0.0310222
0.031611
0.0330639
0.0357986
0.0401387
0.0465827
0.0528557
0.0579489
0.0622992
0.0653927
0.0676034
0.0691709
0.0704359
0.0717227
0.0726725
0.0733108
0.0736121
0.0736997
0.0730606
0.0718629
0.0698762
0.0672406
0.0639126
0.0603062
0.0556323
0.048325
0.0404831
0.0354265
0.0319457
0.0291895
0.0272072
0.0261988
0.0251439
0.0238913
0.0222152
0.0200758
0.0182117
0.0176843
0.017181
0.0166151
0.0201072
0.051949
0.206986
0.313566
0.33079
0.291303
0.267879
0.310615
0.333906
0.340565
0.247534
0.0911628
0.0501503
0.0393798
0.0363011
0.0353674
0.0352589
0.0363547
0.0404782
0.0491722
0.0588972
0.0654268
0.0701355
0.0754842
0.0787118
0.0800756
0.080629
0.0808139
0.0798735
0.0783455
0.075562
0.071716
0.0691608
0.0678013
0.0666685
0.0643908
0.0588592
0.0507375
0.0440888
0.040676
0.0394493
0.038513
0.0364275
0.0319128
0.029466
0.0294592
0.0305605
0.0329544
0.0339128
0.0323027
0.0257389
0.0198941
0.0164173
0.0147698
0.0142832
0.0143144
0.0149084
0.0178034
0.0246284
0.0288387
0.0300132
0.0296846
0.0262387
0.0221772
0.0217556
0.0242868
0.0405124
0.0990804
0.155507
0.18762
0.201569
0.205109
0.202715
0.186108
0.160131
0.137725
0.121472
0.111703
0.106561
0.103967
0.102582
0.101398
0.100833
0.101372
0.106742
0.112111
0.109882
0.0924266
0.0548861
0.0400427
0.0369461
0.0364085
0.0348256
0.0282361
0.0196436
0.0138603
0.0110808
0.00981889
0.00792911
0.00664599
0.00689041
0.0135747
0.0677194
0.144682
0.146899
0.104981
0.0882123
0.0687075
0.0642557
0.0608906
0.0712217
0.0875384
0.118162
0.155953
0.184264
0.192277
0.194654
0.194784
0.191427
0.183726
0.175383
0.169949
0.168339
0.169882
0.173411
0.171116
0.147053
0.0990376
0.0707911
0.0563457
0.047869
0.0387576
0.0284524
0.0245967
0.0237557
0.0238085
0.0248831
0.0278922
0.0306715
0.0318144
0.0327789
0.0347372
0.0390788
0.0456279
0.0533692
0.0597972
0.0645621
0.0680245
0.0702904
0.071571
0.0728561
0.0739835
0.0755689
0.0769297
0.0781765
0.0789336
0.0792299
0.0790876
0.0782124
0.0768781
0.0750903
0.0726495
0.0694059
0.0657374
0.0624414
0.0591083
0.0534793
0.0452755
0.0384033
0.0341828
0.0304232
0.0286276
0.0276857
0.0265494
0.0245827
0.0211204
0.017343
0.0148823
0.0161808
0.0167052
0.0159764
0.0202998
0.0628997
0.247026
0.339417
0.351332
0.336397
0.342022
0.34913
0.336905
0.207055
0.0784145
0.046942
0.0387329
0.0364787
0.0359708
0.0360749
0.0374552
0.0421681
0.0504471
0.0592591
0.0652762
0.0698607
0.0751458
0.0786174
0.0801464
0.0813682
0.0815637
0.0807438
0.079008
0.0761744
0.0727093
0.0701737
0.0683728
0.0669856
0.0646282
0.0592013
0.0511852
0.0444242
0.0398795
0.0380799
0.0373698
0.0360094
0.0307556
0.0243083
0.0228703
0.0238404
0.0289356
0.0342207
0.0355423
0.0336493
0.0264682
0.0202383
0.0165713
0.0148989
0.0145008
0.014691
0.0160677
0.0215914
0.0273192
0.0294317
0.0294209
0.0268582
0.0228151
0.022407
0.025292
0.0438461
0.110815
0.173221
0.210477
0.23432
0.246891
0.245673
0.225289
0.193459
0.168087
0.147835
0.133035
0.123688
0.118134
0.114772
0.113094
0.10991
0.107027
0.107101
0.109408
0.109698
0.10473
0.0784651
0.050598
0.0423326
0.0405706
0.037659
0.0292741
0.0200995
0.0140376
0.0108814
0.00968213
0.00802831
0.00682025
0.00693429
0.0120413
0.0573664
0.136548
0.141929
0.105565
0.0926573
0.0752683
0.0660152
0.0646238
0.0679681
0.0772709
0.104606
0.142113
0.175852
0.185561
0.189006
0.189853
0.188764
0.182463
0.174999
0.1691
0.163938
0.157819
0.144396
0.113481
0.0805605
0.0573806
0.0460457
0.040097
0.0358374
0.0302875
0.0251776
0.0236143
0.023332
0.0241095
0.0264174
0.0302489
0.0323975
0.0335026
0.0356894
0.0405407
0.0478861
0.0561791
0.0630356
0.0676685
0.0710115
0.0728302
0.0741201
0.0753616
0.0772286
0.0795464
0.0820922
0.0842223
0.0856154
0.0862511
0.0864224
0.0858491
0.0846997
0.0825364
0.0796452
0.0762998
0.0725958
0.0681952
0.0640258
0.0608808
0.0573098
0.0524911
0.0458041
0.0391043
0.034429
0.0308877
0.029527
0.0288904
0.0281041
0.02568
0.018997
0.013699
0.0110759
0.014929
0.0158596
0.0145875
0.0195656
0.0751071
0.27895
0.35919
0.367199
0.359727
0.358209
0.331087
0.175491
0.0737833
0.0462527
0.0388526
0.0368651
0.0363911
0.0365309
0.037813
0.0420926
0.0500896
0.0586062
0.0645475
0.0687582
0.0737844
0.0775928
0.0794076
0.0807372
0.0806649
0.0799457
0.0780722
0.0751375
0.0729898
0.0705455
0.0685823
0.067059
0.0639354
0.0574485
0.0502852
0.0446396
0.0397583
0.0363007
0.0347833
0.0333644
0.0291017
0.0189626
0.0143558
0.0143892
0.019092
0.0309716
0.0368373
0.0376105
0.0350639
0.0268924
0.0203513
0.0166581
0.0152287
0.0150932
0.0157657
0.0193969
0.0259523
0.0290469
0.0293347
0.0275092
0.0230417
0.0224302
0.0248953
0.0414435
0.107445
0.187289
0.237072
0.259449
0.264467
0.260039
0.233116
0.199492
0.174642
0.155573
0.141093
0.130847
0.124218
0.120264
0.118167
0.117395
0.116704
0.114965
0.11413
0.113136
0.110047
0.0965405
0.0648714
0.0493506
0.0449214
0.0412206
0.0316558
0.0212592
0.0145035
0.0109402
0.00945499
0.00794352
0.00681689
0.00684963
0.0105563
0.0459871
0.127467
0.137518
0.108685
0.0964754
0.0836521
0.0690394
0.0689528
0.0665566
0.0675697
0.0870445
0.116313
0.160862
0.176601
0.181438
0.182624
0.18194
0.175837
0.165637
0.153498
0.134773
0.110626
0.0804622
0.0601351
0.0466219
0.0372076
0.0328672
0.0304632
0.0284874
0.0257405
0.0235478
0.022992
0.0233559
0.0250812
0.028565
0.032178
0.033889
0.0356562
0.0394126
0.0459108
0.0548122
0.0633367
0.0690678
0.0725558