/*--------------------------------*- C++ -*----------------------------------*\
  =========                 |
  \\      /  F ield         | OpenFOAM: The Open Source CFD Toolbox
   \\    /   O peration     | Website:  https://openfoam.org
    \\  /    A nd           | Version:  6
     \\/     M anipulation  |
\*---------------------------------------------------------------------------*/
FoamFile
{
    version     2.0;
    format      ascii;
    class       volScalarField;
    location    "0.35";
    object      nut;
}
// * * * * * * * * * * * * * * * * * * * * * * * * * * * * * * * * * * * * * //

dimensions      [0 2 -1 0 0 0 0];

internalField   nonuniform List<scalar> 
12225
(
1.68256e-09
0
0
0
0
0
0
0
0
0
0
0
0
0
0
0
0
3.61147e-09
5.66763e-10
0
0
0
0
0
0
0
0
0
0
0
0
0
0
0
0
9.98299e-10
5.43846e-10
0
0
0
0
0
0
0
0
0
0
0
0
0
0
0
0
0
5.21542e-09
0
0
0
3.05083e-11
6.66517e-10
0
0
0
0
4.51438e-11
0
0
0
0
0
0
0
6.34615e-07
0
0
9.6276e-08
1.9898e-07
2.49565e-07
3.85534e-07
5.85881e-07
4.20034e-07
2.75701e-07
2.36748e-07
1.22076e-07
0
0
0
0
0
0
1.50211e-06
8.89657e-07
0
1.63361e-07
2.9491e-07
5.27592e-07
8.29772e-07
1.00435e-06
9.21521e-07
6.90463e-07
5.16189e-07
4.54595e-07
4.11691e-07
2.11684e-07
0
0
0
0
8.57915e-07
1.25706e-08
0
1.10779e-07
6.90022e-07
1.11231e-06
1.09598e-06
8.32175e-07
6.22621e-07
4.04332e-07
3.12168e-07
3.1661e-07
3.69018e-07
3.95257e-07
3.12057e-07
1.23835e-07
0
0
0
0
4.40786e-07
9.87085e-07
1.07136e-06
2.96727e-07
0
1.21984e-07
2.19776e-07
1.70162e-07
2.55401e-07
5.46515e-07
8.71861e-07
1.03826e-06
9.37027e-07
5.26024e-07
1.05019e-07
0
0
1.01801e-07
8.97788e-07
1.00888e-06
3.1979e-07
0
0
0
1.37438e-07
1.04416e-07
3.30494e-07
1.21243e-06
2.16883e-06
2.44154e-06
2.11245e-06
1.42449e-06
6.42738e-07
1.64325e-07
3.93671e-08
2.46026e-07
7.32519e-07
9.74638e-07
3.5236e-07
0
0
1.64267e-07
2.41936e-07
5.15793e-07
1.77949e-06
3.15319e-06
3.56095e-06
3.30967e-06
2.63073e-06
1.69637e-06
8.18276e-07
2.21597e-07
9.21472e-07
4.12642e-07
3.79269e-07
9.63596e-07
1.18262e-06
7.54371e-07
1.98503e-07
0
0
0
1.83272e-06
3.13462e-06
3.04401e-06
2.42306e-06
1.58946e-06
7.62191e-07
2.67726e-07
3.91045e-08
7.536e-07
5.4286e-07
1.93236e-07
2.392e-07
5.34113e-07
1.01926e-06
2.71403e-07
0
0
0
0
0
2.07665e-07
2.06093e-07
1.09198e-07
5.33028e-08
4.7277e-08
6.95772e-08
0
4.72141e-08
1.27561e-08
0
0
0
0
0
0
0
0
0
0
0
5.57344e-08
1.39506e-07
2.03768e-07
2.33742e-07
1.89398e-07
0
0
0
0
0
0
0
0
0
0
0
0
0
3.16251e-08
1.26921e-07
1.83795e-07
1.89776e-07
6.96224e-07
0
0
0
0
0
0
0
0
0
0
0
1.49692e-07
2.34668e-07
2.92899e-07
3.15472e-07
3.00064e-07
2.58483e-07
0
0
0
0
0
0
0
0
0
0
0
0
2.98065e-07
3.84264e-07
1.97282e-07
7.00152e-09
0
2.09908e-07
5.75712e-07
1.85744e-07
0
0
0
0
0
0
0
0
0
0
1.01228e-07
4.54282e-07
0
0
0
0
1.68634e-07
2.01039e-08
6.68885e-07
0
0
0
0
0
0
0
0
0
2.78009e-07
4.56394e-07
2.52441e-07
1.98959e-10
8.80578e-08
2.85592e-07
0
0
0
0
0
0
0
0
0
7.4153e-08
2.35116e-08
0
0
0
0
0
0
0
1.06761e-06
4.11499e-07
0
0
0
0
1.88422e-06
4.56885e-07
0
0
0
0
0
0
0
0
0
0
1.22592e-06
1.12154e-06
7.49953e-07
3.54874e-07
0
6.70414e-07
9.05084e-07
3.71175e-07
0
0
0
0
0
0
0
0
0
0
6.06598e-07
4.34106e-07
9.1465e-07
1.11799e-06
9.66225e-07
1.04118e-06
8.60615e-07
6.24416e-07
2.91635e-07
0
0
0
0
4.99974e-08
1.14821e-07
1.2601e-07
1.29991e-07
1.25988e-07
0
9.76061e-08
4.43768e-07
0
0
6.09932e-08
1.45785e-07
9.73819e-08
0
0
0
0
0
1.6534e-07
2.8781e-07
2.63999e-07
1.83267e-07
9.35135e-08
0
0
0
0
0
9.6609e-09
9.42169e-08
4.39975e-08
0
0
0
0
0
0
5.96534e-08
2.15661e-08
0
0
4.27221e-07
0
0
0
0
4.51576e-07
4.37298e-07
6.80565e-08
0
0
0
0
0
0
0
0
0
0
1.02126e-06
1.11023e-06
0
0
8.79025e-08
2.21442e-07
2.04474e-07
0
0
0
0
0
0
0
0
0
0
0
1.33104e-08
0
3.5048e-08
3.88906e-08
2.32334e-08
0
0
0
0
0
0
0
0
0
0
0
0
0
0
0
0
0
0
0
0
0
0
0
0
0
0
0
0
0
0
0
0
0
0
0
0
0
0
0
0
0
0
0
0
0
0
0
0
0
0
0
0
0
0
0
0
0
0
0
0
0
0
0
0
0
0
0
2.1668e-05
1.4092e-05
1.27874e-05
1.07801e-05
5.94859e-06
1.41693e-06
0
0
0
0
0
7.77593e-07
1.83606e-06
2.70295e-06
3.28852e-06
3.48148e-06
2.76084e-06
6.12258e-07
0
0
0
0
0
0
0
0
0
1.58357e-05
2.89798e-05
1.38801e-05
1.41156e-06
0
0
0
8.78008e-07
1.47052e-06
1.77079e-06
1.90678e-06
1.91819e-06
1.86339e-06
1.7884e-06
1.68168e-06
1.57787e-06
1.45922e-06
1.33511e-06
1.19875e-06
1.05234e-06
8.93788e-07
7.24051e-07
5.47615e-07
3.60907e-07
1.69418e-07
0
0
0
0
0
0
0
0
0
0
0
0
0
0
0
0
0
0
0
0
0
0
0
0
0
0
4.37431e-07
3.65099e-06
7.35358e-06
1.23151e-05
1.24697e-05
0
0
4.37824e-05
5.81098e-05
6.70473e-05
7.4614e-05
3.29266e-05
8.61069e-06
2.99602e-06
2.0711e-06
1.82647e-06
1.59827e-06
1.28311e-06
1.02077e-06
7.56711e-07
5.5206e-07
3.63208e-07
2.03917e-07
5.85028e-08
0
0
0
0
0
0
0
0
0
0
0
0
0
0
0
0
0
0
0
0
0
0
0
0
0
0
0
0
0
0
0
0
0
0
0
0
0
0
0
0
0
0
0
0
0
0
0
0
0
0
1.62237e-08
1.85584e-07
7.09206e-07
8.42029e-07
0
0
0
2.07698e-06
2.40917e-06
4.56427e-06
8.14544e-06
0
0
0
0
1.79959e-06
2.66936e-06
3.01044e-06
2.28332e-06
1.22384e-06
1.50418e-06
2.38191e-06
1.64486e-06
4.49855e-08
0
0
1.86285e-06
7.55533e-06
1.67504e-05
2.32234e-05
1.76641e-05
1.23321e-05
6.26051e-06
8.59358e-07
0
0
0
0
0
9.63311e-07
3.00152e-06
4.73294e-06
5.94258e-06
6.32673e-06
5.09051e-06
1.83114e-06
0
0
0
0
0
0
0
0
0
0
6.47608e-06
5.44051e-06
0
0
0
0
0
0
6.28476e-07
9.73874e-07
1.12299e-06
1.14398e-06
1.12315e-06
1.05016e-06
9.82987e-07
8.90493e-07
8.00176e-07
7.04241e-07
6.0054e-07
4.98799e-07
3.93468e-07
2.89757e-07
1.84737e-07
7.50194e-08
0
0
0
0
0
0
0
0
0
0
0
0
0
0
0
0
0
0
2.03013e-06
5.27715e-06
5.02586e-06
0
0
0
0
0
5.51376e-07
6.63964e-06
1.13402e-05
1.5073e-05
1.26778e-05
0
0
1.05719e-06
1.0071e-05
1.49991e-05
2.48123e-05
1.92838e-05
8.47516e-06
3.22102e-06
2.28346e-06
1.97499e-06
1.70821e-06
1.38469e-06
1.11169e-06
8.55758e-07
6.35762e-07
4.31663e-07
2.43992e-07
6.49057e-08
0
0
0
0
0
0
0
0
0
0
0
0
0
0
0
0
0
0
0
0
0
0
0
0
0
0
0
0
0
0
0
0
0
0
0
0
0
0
0
0
0
0
0
0
0
0
0
0
0
0
0
9.87457e-08
7.11003e-07
8.09021e-07
0
0
0
3.3778e-07
0
0
0
1.2721e-07
5.35859e-07
3.37555e-07
4.17399e-07
4.20501e-07
3.6478e-07
6.00168e-07
6.51219e-07
1.92494e-07
4.11064e-07
1.3212e-06
1.15614e-06
9.29903e-08
0
9.22158e-07
5.85729e-06
1.81374e-05
6.07755e-06
8.61204e-06
9.90129e-06
9.42091e-06
2.86754e-06
0
0
0
0
0
0
0
1.64998e-05
2.15775e-05
1.7668e-05
1.13545e-05
5.17873e-06
6.03263e-08
0
0
0
0
0
0
0
0
0
0
0
0
0
0
0
0
0
0
0
0
0
0
3.0464e-08
1.51707e-07
2.13041e-07
2.38965e-07
2.34983e-07
2.17995e-07
1.86759e-07
1.50606e-07
1.09601e-07
6.41462e-08
1.14527e-08
0
0
0
0
0
0
0
0
0
0
0
0
0
0
0
0
0
6.13662e-07
1.57306e-06
2.90225e-06
5.17209e-06
7.9035e-06
5.4432e-06
0
0
0
0
0
2.205e-05
2.27872e-05
1.79891e-05
1.09674e-05
0
0
3.65069e-07
5.94053e-06
7.30643e-06
8.42769e-06
9.79768e-06
6.54768e-06
4.21994e-06
4.53795e-06
4.628e-06
4.27802e-06
3.58985e-06
2.89588e-06
2.21818e-06
1.61788e-06
1.08189e-06
5.9652e-07
1.37291e-07
0
0
0
0
0
0
0
0
0
0
0
0
0
0
0
0
0
0
0
0
0
0
0
0
0
0
0
0
0
0
0
0
0
0
0
0
0
0
0
0
0
0
0
0
0
0
0
0
0
1.42004e-08
0
0
6.17394e-07
9.76795e-07
0
0
0
0
0
0
0
0
5.16208e-07
1.45446e-06
7.8045e-07
0
0
0
0
0
0
5.88551e-07
1.86813e-06
2.87918e-07
0
7.58924e-06
3.02514e-05
4.336e-05
9.61239e-07
1.64798e-06
3.83236e-06
3.94709e-06
0
0
0
0
0
0
0
0
1.60931e-05
2.46504e-05
2.09699e-05
1.21993e-05
3.90176e-06
0
0
0
0
0
0
0
0
0
0
0
0
0
0
0
0
0
0
0
0
0
0
0
0
0
0
0
0
0
0
0
0
0
0
0
0
0
0
0
0
3.34184e-07
6.34651e-07
8.91084e-07
1.11044e-06
1.2889e-06
1.41757e-06
1.49444e-06
1.5218e-06
1.51987e-06
1.48832e-06
1.43067e-06
1.35748e-06
1.34977e-06
1.88926e-06
3.92689e-06
6.6423e-06
2.39791e-06
0
0
0
0
0
0
6.07581e-06
4.30744e-06
6.85013e-06
4.06676e-06
0
1.47491e-06
4.13839e-06
3.94373e-06
3.77728e-06
4.91631e-06
3.28718e-06
2.06713e-06
1.36282e-06
1.08593e-06
1.05047e-06
1.09353e-06
1.07869e-06
1.01404e-06
8.55071e-07
6.20409e-07
4.78981e-07
6.05051e-07
6.40455e-07
4.54355e-07
1.82944e-07
0
0
0
0
0
0
0
0
0
0
0
0
0
0
0
0
0
0
0
0
0
0
0
0
0
0
0
0
0
0
0
0
0
0
0
0
0
0
0
0
0
0
0
0
0
0
0
0
0
0
1.15915e-06
0
0
0
0
0
0
0
0
0
1.26273e-07
5.05246e-07
0
0
0
0
0
0
0
0
0
0
2.23024e-06
1.81423e-05
2.22738e-05
2.82425e-07
5.42661e-07
1.63096e-06
2.61376e-06
1.64283e-07
0
0
0
0
0
0
8.73299e-06
1.5676e-05
1.86721e-05
1.77716e-05
1.34405e-05
7.01389e-06
0
0
0
0
0
0
0
0
0
0
0
0
0
0
0
0
0
0
0
0
0
0
0
0
0
0
6.16029e-07
1.51238e-06
2.72477e-06
4.09131e-06
4.05565e-06
0
0
0
0
0
0
0
0
0
0
0
0
2.20978e-07
5.30884e-07
7.82688e-07
9.62489e-07
1.05239e-06
1.09271e-06
1.10023e-06
1.03265e-06
8.49054e-07
6.02547e-07
8.09e-07
3.08273e-06
6.75281e-06
0
0
0
0
0
0
0
0
0
6.08786e-06
2.75904e-06
0
0
1.39115e-06
1.41003e-06
1.03785e-06
1.29386e-06
7.9613e-07
6.85578e-07
5.14464e-07
5.14766e-07
4.62282e-07
4.10957e-07
2.0854e-07
0
0
0
0
3.90248e-07
8.03354e-07
8.3157e-07
6.4857e-07
3.88693e-07
1.19524e-07
0
0
0
0
0
0
0
0
0
0
0
0
0
0
0
0
0
0
0
0
0
0
0
0
0
0
0
0
0
0
0
0
0
0
0
0
0
0
0
0
0
0
0
0
0
0
0
0
9.10672e-07
0
0
0
8.44227e-08
0
0
0
0
0
8.24307e-10
8.76185e-07
1.07068e-06
7.68473e-07
4.17114e-07
1.12871e-07
0
0
0
0
0
0
0
1.0104e-05
1.62696e-05
1.62012e-07
3.11132e-07
8.53232e-07
0
0
0
0
0
0
0
9.93744e-07
7.64693e-06
1.25084e-05
1.4381e-05
1.34503e-05
1.12927e-05
8.10382e-06
0
0
0
0
0
0
0
0
0
0
0
0
0
0
0
0
0
1.35646e-07
2.16296e-07
0
0
0
0
0
0
0
1.1494e-06
3.10101e-06
6.20142e-06
1.04523e-05
1.58704e-07
0
0
0
0
0
0
0
0
0
0
0
0
0
0
0
2.56757e-07
4.32797e-07
4.86632e-07
4.9344e-07
4.49678e-07
2.48958e-07
0
0
2.44486e-06
8.21655e-06
0
0
0
0
0
0
0
0
0
1.96645e-08
0
0
0
0
0
0
9.35221e-07
1.35667e-06
1.27823e-06
1.00865e-06
8.3775e-07
6.18182e-07
3.55275e-07
0
0
0
0
3.96928e-07
1.15569e-06
1.41017e-06
1.36448e-06
1.18662e-06
9.42406e-07
6.81292e-07
4.06071e-07
1.18648e-07
0
0
0
0
0
0
0
0
0
0
0
0
0
0
0
0
0
0
0
0
0
0
0
0
0
0
0
0
0
0
0
0
0
0
0
0
0
0
0
0
0
0
0
0
0
0
0
0
0
0
1.4186e-06
7.55198e-07
0
0
0
2.68184e-07
2.19505e-06
3.15472e-06
3.114e-06
2.46605e-06
1.37699e-06
7.26218e-08
0
0
0
0
0
0
1.05008e-06
9.50305e-06
1.55104e-05
8.49177e-08
1.46816e-07
3.36849e-07
0
0
0
0
0
0
0
5.323e-07
3.81281e-06
7.20381e-06
9.03408e-06
8.51957e-06
7.15856e-06
5.47677e-06
0
0
0
0
0
0
0
0
0
0
0
0
0
0
0
3.94889e-07
1.37975e-06
9.34406e-07
0
0
0
0
0
0
0
3.7685e-07
2.04036e-06
4.5706e-06
7.93206e-06
8.50871e-06
0
0
0
0
0
0
0
0
0
0
0
0
0
0
0
0
0
0
8.35061e-09
2.47597e-07
2.70063e-07
5.57134e-08
0
0
1.83165e-06
8.33435e-06
0
0
0
0
0
0
0
0
0
0
0
0
0
0
0
0
7.18857e-07
1.02096e-06
1.00881e-06
8.42858e-07
7.06495e-07
4.93394e-07
8.62079e-08
0
0
0
9.08229e-08
8.60162e-07
1.01212e-06
9.00066e-07
7.80205e-07
7.2606e-07
7.07489e-07
6.88993e-07
6.11144e-07
4.43331e-07
1.868e-07
0
0
0
0
0
0
0
0
0
0
0
0
0
0
0
0
0
0
0
0
0
0
0
0
0
0
0
0
0
0
0
0
0
0
0
0
0
0
0
0
0
0
0
0
0
0
0
0
0
7.39988e-07
2.2317e-06
0
0
2.53781e-07
2.59894e-06
4.19517e-06
4.65981e-06
3.96154e-06
2.7769e-06
1.27227e-06
1.02738e-08
0
0
0
9.25583e-07
4.09804e-06
6.20031e-06
7.39731e-06
1.08656e-05
1.54115e-05
2.76673e-08
3.55677e-08
4.99244e-08
0
0
0
0
0
0
3.43991e-08
4.92076e-07
1.51747e-06
3.41019e-06
5.05179e-06
5.11482e-06
4.02745e-06
2.7749e-06
0
0
0
0
0
0
0
0
0
0
0
0
0
0
1.68613e-06
3.03673e-06
1.98162e-06
2.05119e-07
0
0
0
0
0
0
0
8.27309e-07
2.17174e-06
3.53531e-06
4.08898e-06
2.81569e-06
5.06334e-07
0
0
0
0
3.99337e-07
7.90814e-07
1.03633e-06
1.13037e-06
1.08055e-06
9.03676e-07
5.93613e-07
1.36055e-07
0
0
0
0
0
0
0
0
0
0
0
2.57171e-07
3.44825e-06
0
0
0
0
0
0
0
0
0
1.47017e-06
1.20369e-06
0
2.32164e-07
2.7436e-07
0
0
3.41952e-07
5.83164e-07
6.02603e-07
5.08628e-07
4.34242e-07
2.52746e-07
0
0
0
0
0
0
0
0
0
0
1.59406e-07
3.99953e-07
5.3813e-07
4.9637e-07
2.73765e-07
0
0
0
0
0
0
0
0
0
0
0
0
0
0
0
0
0
0
0
0
0
0
0
0
0
0
0
0
0
0
0
0
0
0
0
0
0
0
0
0
0
0
0
0
0
0
0
0
0
0
1.41133e-06
8.75809e-07
1.06808e-06
2.95928e-06
4.68878e-06
5.54819e-06
5.28347e-06
4.11306e-06
2.72896e-06
9.61658e-07
0
0
0
0
2.84e-06
7.56957e-06
1.09532e-05
1.12455e-05
1.1082e-05
1.39667e-05
0
0
0
2.84469e-06
5.33622e-06
4.22872e-06
3.70317e-06
3.70314e-06
3.47339e-06
2.62808e-06
1.54645e-06
1.09609e-06
1.89424e-06
3.68714e-06
5.80258e-06
9.04798e-06
1.20842e-05
2.66539e-06
0
0
0
0
0
0
0
0
0
0
0
1.01277e-09
3.00314e-06
4.38171e-06
2.36815e-06
0
0
0
0
0
0
0
0
0
5.95315e-07
1.80389e-06
2.86673e-06
3.28266e-06
2.69634e-06
1.5691e-06
7.69308e-07
6.50135e-07
1.01677e-06
1.58216e-06
2.16165e-06
2.63947e-06
2.97964e-06
3.1546e-06
3.17821e-06
3.08641e-06
2.86194e-06
2.51086e-06
1.92013e-06
9.49938e-07
0
0
0
0
0
0
0
0
0
0
3.5809e-08
0
0
0
0
0
0
3.21952e-07
0
0
6.82596e-06
9.62374e-06
6.89786e-06
8.05351e-06
9.96551e-06
3.88231e-07
0
2.29481e-07
3.49428e-07
2.9362e-07
1.88146e-07
1.43995e-07
1.66659e-08
0
0
0
0
0
0
0
0
0
1.19787e-07
3.8774e-07
5.65387e-07
7.03951e-07
6.85424e-07
4.13393e-07
4.67667e-08
0
0
0
0
0
0
0
0
0
0
0
0
0
0
0
0
0
0
0
0
0
0
0
0
0
0
0
0
0
0
0
0
0
0
0
0
0
0
0
0
0
0
0
0
0
0
0
0
0
0
2.26374e-06
3.80825e-06
5.14854e-06
6.12081e-06
6.40839e-06
5.62988e-06
4.12405e-06
2.44525e-06
5.265e-07
0
0
5.06698e-07
9.34162e-07
3.70759e-06
9.04488e-06
1.31564e-05
1.27896e-05
1.02104e-05
1.25321e-05
0
0
0
0
5.71935e-06
8.80962e-06
9.50019e-06
8.85474e-06
8.06625e-06
6.95835e-06
5.58163e-06
4.73031e-06
5.36786e-06
8.06834e-06
1.3591e-05
2.07468e-05
1.9196e-05
1.11375e-05
4.58253e-06
0
0
0
0
0
0
0
0
0
1.78638e-06
5.22898e-06
6.45348e-06
3.27274e-06
0
0
0
0
0
0
0
0
2.07462e-07
1.93652e-06
4.16524e-06
6.6666e-06
8.8422e-06
9.02094e-06
5.50604e-06
0
0
0
0
0
0
0
6.14462e-07
1.32065e-06
1.72357e-06
1.87038e-06
1.87232e-06
1.87779e-06
1.86858e-06
1.6368e-06
8.30493e-07
0
0
0
0
0
0
0
0
0
0
0
0
0
0
0
2.76033e-07
4.88358e-07
0
7.17855e-07
8.30129e-06
1.23808e-05
1.12486e-05
1.27912e-05
6.60928e-06
3.54446e-07
8.93158e-08
2.88443e-07
2.66954e-07
9.08603e-08
0
0
0
0
0
0
0
0
0
0
0
6.5214e-07
8.04487e-07
6.60133e-07
5.69221e-07
6.51553e-07
7.02424e-07
4.77248e-07
6.72379e-08
0
0
0
0
0
0
0
0
0
0
0
0
0
0
0
0
0
0
0
0
0
0
0
0
0
0
0
0
0
0
4.09148e-06
8.67154e-06
1.30092e-06
0
0
0
0
0
0
0
0
0
0
0
0
0
0
0
0
0
2.56271e-06
5.55034e-06
6.5847e-06
7.0712e-06
7.05535e-06
6.01306e-06
4.16268e-06
2.22317e-06
2.98055e-07
0
3.03539e-07
1.31582e-06
1.66008e-06
3.9229e-06
9.23192e-06
1.39227e-05
1.31606e-05
9.28098e-06
1.16852e-05
0
0
0
0
7.4913e-07
4.02447e-06
6.41449e-06
7.51175e-06
8.28723e-06
8.80314e-06
8.9117e-06
9.08844e-06
1.00991e-05
1.26532e-05
1.78535e-05
2.52118e-05
3.02146e-05
2.63894e-05
1.65575e-05
8.71377e-06
5.27069e-06
3.27188e-06
7.2918e-07
0
0
0
6.67537e-07
4.51507e-06
1.02008e-05
1.18174e-05
5.67702e-06
6.46513e-07
0
0
0
0
0
0
4.28131e-07
2.36078e-06
5.02086e-06
8.62365e-06
1.35137e-05
2.0275e-05
2.90544e-05
3.30711e-05
4.37229e-06
0
0
0
0
0
0
0
0
0
4.7015e-07
9.63714e-07
9.78742e-07
8.48248e-07
9.8207e-07
1.30571e-06
1.14743e-06
0
0
0
0
0
2.07829e-07
2.36941e-07
0
0
0
0
0
0
0
3.32328e-07
2.02464e-07
0
0
1.41895e-06
8.08501e-06
1.17033e-05
1.0867e-05
8.90679e-06
2.47344e-06
0
2.05443e-07
3.83956e-07
2.70281e-07
4.79909e-09
0
0
0
0
0
0
0
0
0
0
5.14047e-07
8.14094e-07
6.18268e-07
3.08497e-07
2.06951e-07
3.83658e-07
5.83083e-07
5.02728e-07
1.51731e-07
0
0
1.24386e-07
5.90199e-08
0
0
0
0
0
0
0
0
0
0
0
0
0
0
0
0
0
0
0
0
0
0
0
0
0
0
5.2587e-06
8.06606e-06
3.97979e-06
0
0
0
0
0
0
0
0
0
0
0
0
0
0
0
0
0
1.12482e-06
6.42472e-06
7.67505e-06
7.91768e-06
7.65123e-06
6.3599e-06
4.34224e-06
2.29953e-06
4.68973e-07
6.13352e-08
8.16363e-07
1.84449e-06
2.16667e-06
3.756e-06
8.53027e-06
1.3745e-05
1.28605e-05
8.48196e-06
1.10791e-05
0
0
0
0
0
0
1.64699e-06
3.28649e-06
4.68867e-06
5.95108e-06
6.86032e-06
7.52009e-06
8.13836e-06
8.91507e-06
9.98653e-06
1.14073e-05
1.29114e-05
1.31611e-05
1.054e-05
6.31276e-06
3.63744e-06
3.15195e-06
2.93625e-06
2.75891e-06
2.67836e-06
2.18738e-06
5.24304e-07
0
0
2.11447e-06
1.50168e-06
0
0
0
0
0
0
1.09895e-06
2.93041e-06
5.28701e-06
8.26474e-06
1.19729e-05
1.63087e-05
2.00718e-05
1.74935e-05
0
0
0
0
0
0
0
0
0
0
0
3.10458e-09
1.01678e-06
1.31685e-06
1.07216e-06
8.76261e-07
1.36067e-06
1.94424e-06
1.1705e-06
0
0
0
0
0
0
5.71808e-07
0
0
0
0
0
0
0
0
0
0
1.88766e-06
8.0259e-06
1.04156e-05
8.50981e-06
4.42441e-06
2.56178e-07
0
2.78725e-07
4.88659e-07
3.55008e-07
4.5778e-08
0
0
0
0
0
0
0
0
0
0
0
0
0
0
1.96118e-08
3.05569e-07
5.20732e-07
5.12776e-07
2.93356e-07
3.18477e-08
8.04527e-09
3.34956e-07
4.98143e-07
0
0
0
0
0
0
0
0
0
0
0
0
0
0
0
0
0
0
0
0
0
0
0
0
0
1.30402e-06
3.2846e-06
0
0
2.85396e-05
1.0744e-05
0
0
0
0
0
0
0
0
0
0
0
0
3.90029e-08
0
0
2.90082e-07
6.53138e-06
8.70056e-06
8.85732e-06
8.23899e-06
6.60547e-06
4.5923e-06
2.76063e-06
1.09691e-06
7.6898e-07
1.39104e-06
2.28038e-06
2.50321e-06
3.40482e-06
7.18217e-06
1.27321e-05
1.19251e-05
7.55707e-06
1.0172e-05
0
0
0
0
0
0
0
0
7.45251e-07
1.82977e-06
2.63657e-06
3.21681e-06
3.57427e-06
3.70267e-06
3.62562e-06
3.49528e-06
3.57164e-06
3.86905e-06
3.92466e-06
3.64743e-06
3.30037e-06
3.13157e-06
3.0866e-06
3.0213e-06
2.58222e-06
1.50427e-06
0
0
0
0
3.36979e-08
0
0
0
0
0
6.36033e-07
1.80705e-06
3.19988e-06
4.70738e-06
6.09642e-06
6.8567e-06
5.92453e-06
1.95135e-06
0
0
0
0
0
0
0
0
0
0
0
0
0
5.81489e-07
1.14713e-06
1.05558e-06
5.02598e-07
3.67522e-07
1.27485e-06
1.78445e-06
5.33133e-09
0
0
0
0
0
0
0
0
0
0
0
0
0
0
0
0
3.24815e-06
8.77495e-06
9.39703e-06
6.3094e-06
1.50704e-06
0
0
2.99501e-07
5.58805e-07
4.89421e-07
2.01382e-07
0
2.60033e-08
1.07147e-07
0
0
0
0
0
0
0
0
0
0
0
1.05261e-07
3.58135e-07
4.10715e-07
3.63945e-07
3.31686e-07
2.8566e-07
3.12497e-07
6.04707e-07
7.81708e-07
2.80555e-07
0
0
0
0
0
0
0
0
0
0
0
0
0
0
0
0
0
1.97133e-07
0
0
0
0
0
0
3.69439e-07
5.30275e-07
0
5.7233e-08
3.77479e-05
2.22621e-05
5.17716e-06
0
0
0
0
0
0
0
0
0
3.63263e-07
2.60864e-06
4.71878e-06
6.13272e-06
5.753e-06
3.74945e-06
6.32602e-06
9.44199e-06
9.6296e-06
8.73476e-06
6.85763e-06
4.85419e-06
3.37417e-06
2.06739e-06
1.65446e-06
1.96331e-06
2.61967e-06
2.71356e-06
3.01638e-06
5.48761e-06
1.10087e-05
1.0443e-05
6.48794e-06
8.94711e-06
0
0
0
0
0
0
0
0
0
0
0
2.79642e-08
5.77525e-07
1.16319e-06
1.81036e-06
2.5161e-06
3.14956e-06
3.40628e-06
3.42885e-06
3.28354e-06
3.08677e-06
3.02546e-06
3.00064e-06
2.84818e-06
2.34044e-06
1.41325e-06
8.57769e-08
0
0
0
0
0
0
0
0
1.07184e-08
4.2938e-07
1.03417e-06
1.61304e-06
1.93232e-06
1.67785e-06
4.48157e-07
0
0
0
0
0
0
0
0
0
0
0
0
0
0
0
4.44914e-07
9.18105e-07
9.13063e-07
3.2743e-07
0
0
0
3.68184e-08
0
0
0
0
0
0
0
0
0
0
0
0
0
0
0
0
4.80662e-06
9.78299e-06
9.3871e-06
4.97629e-06
0
0
0
2.80469e-07
5.50473e-07
5.90452e-07
3.79654e-07
1.69231e-07
2.13531e-07
4.11129e-07
2.74482e-07
0
0
0
0
0
0
0
0
0
0
8.68037e-08
2.27125e-07
1.38246e-07
1.15825e-07
2.93428e-07
5.73229e-07
9.07316e-07
1.18424e-06
1.0808e-06
5.5785e-07
0
0
0
0
0
0
0
0
0
0
0
0
0
0
0
0
0
1.84895e-06
2.25039e-08
0
0
0
0
0
0
0
0
1.25643e-05
3.42314e-05
2.56313e-05
9.41316e-06
0
0
0
0
0
0
0
0
0
9.75079e-07
3.98023e-06
7.07493e-06
9.81831e-06
1.08252e-05
8.88404e-06
7.30432e-06
9.92669e-06
1.04282e-05
9.27922e-06
7.0834e-06
5.08027e-06
3.80547e-06
2.93392e-06
2.49387e-06
2.42458e-06
2.82921e-06
2.82537e-06
2.66483e-06
3.80956e-06
8.75572e-06
8.6025e-06
5.24404e-06
7.43759e-06
0
0
0
0
0
0
0
0
0
0
0
0
0
5.97041e-07
1.47345e-06
2.16469e-06
2.56483e-06
2.75086e-06
2.77198e-06
2.78799e-06
2.80602e-06
2.85283e-06
2.86596e-06
2.72312e-06
2.29656e-06
1.56903e-06
5.86684e-07
0
0
0
7.87733e-08
4.05346e-07
5.37246e-07
4.5386e-07
1.83011e-07
0
0
0
0
0
0
0
0
0
0
0
0
0
0
0
0
0
0
0
0
0
0
7.37118e-07
9.67065e-07
9.23508e-07
6.29874e-07
0
0
0
0
0
0
0
0
0
0
0
0
0
0
0
0
0
0
0
0
4.34217e-06
1.0296e-05
1.00027e-05
4.75074e-06
0
0
0
1.9865e-07
4.69672e-07
6.37836e-07
5.52769e-07
3.72297e-07
3.77191e-07
6.17427e-07
7.97232e-07
4.96957e-07
0
0
0
0
0
0
0
0
0
0
0
0
0
4.04942e-07
1.02825e-06
1.69272e-06
1.80762e-06
1.32767e-06
7.37942e-07
0
0
0
0
0
0
0
0
0
0
0
0
2.04382e-07
2.08673e-06
1.00805e-05
4.659e-06
1.99976e-05
4.2158e-06
1.01311e-06
0
0
0
0
0
0
0
6.44275e-07
1.96116e-05
3.53428e-05
2.90648e-05
1.21997e-05
0
0
0
0
0
0
0
0
0
2.21292e-06
5.51865e-06
8.78087e-06
1.21964e-05
1.4234e-05
1.31553e-05
9.77532e-06
1.01129e-05
1.09166e-05
9.57956e-06
7.21357e-06
5.25265e-06
4.05783e-06
3.36233e-06
3.01076e-06
2.67986e-06
2.86778e-06
2.85917e-06
2.37686e-06
2.3738e-06
6.22895e-06
6.53234e-06
3.72292e-06
5.62534e-06
1.00653e-08
0
0
0
0
0
0
0
0
0
0
0
1.99853e-07
9.254e-07
1.53942e-06
1.9477e-06
2.11571e-06
2.25354e-06
2.32405e-06
2.39948e-06
2.51119e-06
2.63527e-06
2.72266e-06
2.66815e-06
2.37294e-06
1.81931e-06
1.06731e-06
2.98435e-07
0
0
2.94151e-07
7.1164e-07
9.42113e-07
8.71807e-07
4.31874e-07
0
0
0
0
0
0
0
0
0
0
0
0
0
0
0
0
0
0
0
0
0
2.24494e-07
1.03548e-06
8.57765e-07
6.19619e-07
5.72394e-07
2.53111e-07
0
0
2.13454e-07
2.85771e-07
0
0
0
0
0
0
0
0
0
0
0
0
0
0
0
0
7.33537e-06
1.02524e-05
5.27571e-06
0
0
0
2.73366e-08
2.81466e-07
5.37301e-07
6.3264e-07
5.69076e-07
5.5344e-07
7.34283e-07
1.00728e-06
1.11893e-06
8.43265e-07
2.07511e-07
0
0
0
0
0
0
0
0
0
0
0
9.13188e-07
2.034e-06
2.65829e-06
2.24945e-06
1.41845e-06
6.25379e-07
6.65969e-08
0
0
0
0
0
0
0
0
0
0
0
1.0609e-06
5.71858e-06
2.70678e-05
2.19222e-05
3.97643e-05
6.22823e-06
1.92794e-06
0
0
0
0
0
0
0
1.26873e-06
2.28721e-05
3.74999e-05
3.4987e-05
1.53621e-05
0
0
0
0
0
0
0
0
0
3.64913e-06
7.22272e-06
1.01578e-05
1.38947e-05
1.67334e-05
1.6497e-05
1.30174e-05
1.09926e-05
1.14235e-05
9.97754e-06
7.4495e-06
5.44614e-06
4.22449e-06
3.47001e-06
3.10414e-06
2.69044e-06
2.73023e-06
2.85733e-06
2.16431e-06
1.2773e-06
3.68165e-06
4.27535e-06
1.88417e-06
3.48116e-06
0
0
0
0
0
0
0
0
0
0
0
3.08867e-07
8.85274e-07
1.27759e-06
1.51917e-06
1.63726e-06
1.66455e-06
1.72244e-06
1.78814e-06
1.8584e-06
1.98565e-06
2.15402e-06
2.31204e-06
2.36155e-06
2.21073e-06
1.84249e-06
1.31357e-06
7.40121e-07
2.9962e-07
1.78051e-07
4.12835e-07
8.15199e-07
1.13598e-06
1.17255e-06
7.97429e-07
2.79274e-09
0
0
0
0
0
0
0
0
0
0
0
0
0
0
0
0
0
0
0
1.49956e-07
1.01849e-06
1.30985e-06
7.46484e-07
1.67158e-07
2.39299e-07
2.90358e-07
0
0
7.98379e-07
1.01708e-06
0
0
0
0
0
0
0
5.46673e-08
0
0
0
0
0
0
0
0
1.7215e-06
7.11724e-06
4.81957e-06
0
0
0
0
1.02577e-07
3.22893e-07
5.13541e-07
6.37564e-07
7.83732e-07
1.06917e-06
1.49627e-06
1.98769e-06
2.44675e-06
2.75063e-06
2.76401e-06
2.36796e-06
1.48682e-06
2.9832e-07
0
0
0
0
0
0
1.01681e-07
1.89131e-06
3.20834e-06
3.08666e-06
2.16796e-06
1.17619e-06
4.70499e-07
1.30975e-08
0
0
0
0
0
0
0
0
0
0
0
1.33955e-06
1.05212e-05
2.18598e-05
1.99049e-05
2.65321e-05
2.78169e-06
1.70695e-06
0
0
0
0
0
0
0
0
1.38655e-05
2.47266e-05
3.26858e-05
2.00994e-05
0
0
0
0
0
0
0
0
3.79819e-07
4.89266e-06
8.3182e-06
1.05314e-05
1.43326e-05
1.81091e-05
1.86853e-05
1.56627e-05
1.2071e-05
1.17041e-05
1.0178e-05
7.6247e-06
5.55558e-06
4.25936e-06
3.40442e-06
2.90339e-06
2.43828e-06
2.31585e-06
2.80852e-06
2.00591e-06
5.15674e-07
1.32239e-06
1.84773e-06
0
9.78938e-07
4.01126e-07
1.80103e-07
1.8127e-06
2.93947e-06
1.98281e-08
0
0
0
0
0
0
1.08216e-06
1.72638e-06
1.78693e-06
1.56285e-06
1.34268e-06
1.20167e-06
1.18249e-06
1.2346e-06
1.31979e-06
1.46888e-06
1.66903e-06
1.87426e-06
2.00315e-06
1.97037e-06
1.75007e-06
1.39167e-06
9.82275e-07
6.33501e-07
4.54734e-07
5.27898e-07
8.19672e-07
1.15511e-06
1.32716e-06
1.17976e-06
6.14695e-07
0
0
0
0
0
0
0
0
0
0
0
0
0
0
0
0
0
0
9.96753e-07
1.16234e-06
1.04599e-06
1.10764e-06
6.35805e-07
0
0
2.37541e-07
1.18614e-08
0
1.98702e-07
1.05551e-06
5.27091e-08
0
0
0
0
0
0
0
0
0
0
0
0
0
0
0
0
2.92637e-06
3.29483e-06
0
0
0
0
0
2.58547e-07
4.80055e-07
6.82192e-07
1.0172e-06
1.57792e-06
2.38344e-06
3.42995e-06
4.74895e-06
6.24096e-06
7.54892e-06
7.77504e-06
6.04786e-06
3.10252e-06
5.36611e-07
0
0
0
0
0
7.94473e-07
3.22963e-06
3.61757e-06
2.61056e-06
1.56189e-06
9.22831e-07
4.19304e-07
0
0
0
0
2.62904e-07
0
0
0
0
0
0
0
9.76771e-08
1.43441e-05
1.41092e-05
1.43874e-05
2.4689e-06
0
0
0
0
1.39682e-06
0
0
0
0
0
6.94061e-07
4.80356e-06
1.04323e-05
1.62558e-05
0
0
0
0
0
0
0
0
1.28608e-06
5.23496e-06
8.02158e-06
9.38613e-06
1.30891e-05
1.82726e-05
1.99817e-05
1.76771e-05
1.35569e-05
1.21714e-05
1.04661e-05
7.71561e-06
5.56465e-06
4.18557e-06
3.26675e-06
2.62353e-06
2.06275e-06
1.52849e-06
2.69732e-06
1.88273e-06
4.04495e-08
0
0
0
0
9.03973e-07
6.24993e-07
0
1.18262e-06
3.11583e-07
0
0
0
0
0
0
1.00751e-06
2.01443e-06
2.31398e-06
1.98126e-06
1.40088e-06
9.49542e-07
7.66871e-07
7.62664e-07
8.51726e-07
1.01009e-06
1.22641e-06
1.45937e-06
1.64293e-06
1.70468e-06
1.60285e-06
1.35599e-06
1.04212e-06
7.7184e-07
6.12189e-07
6.06111e-07
7.63471e-07
1.0128e-06
1.22e-06
1.23628e-06
9.67351e-07
3.81497e-07
0
0
0
0
0
0
0
0
0
0
0
0
0
0
0
1.05998e-07
1.08753e-06
1.54249e-06
1.177e-06
7.26118e-07
8.21651e-07
6.68504e-07
0
0
0
2.46864e-07
0
0
1.72054e-07
4.81641e-08
0
0
0
0
0
0
0
0
0
0
0
0
0
0
0
0
0
1.18657e-06
0
0
0
0
0
9.66206e-08
6.46131e-07
9.70507e-07
1.33377e-06
1.98073e-06
2.99703e-06
4.3812e-06
6.18316e-06
8.36018e-06
1.08532e-05
1.29431e-05
1.3186e-05
9.50178e-06
8.96923e-07
0
0
0
0
0
2.57507e-06
4.04605e-06
3.044e-06
1.83826e-06
1.13038e-06
7.25247e-07
4.31299e-07
9.03772e-08
0
0
0
2.51817e-07
0
0
0
0
0
0
0
4.50646e-06
8.34849e-06
7.24942e-06
7.56924e-06
0
0
0
0
0
4.10505e-06
8.04327e-07
0
0
0
0
0
0
0
1.6548e-06
0
0
0
0
0
0
0
0
8.27586e-07
2.30093e-06
4.40319e-06
5.55049e-06
9.84316e-06
1.67413e-05
2.00841e-05
1.86702e-05
1.4768e-05
1.26304e-05
1.06967e-05
7.80743e-06
5.45964e-06
4.03964e-06
3.1029e-06
2.34731e-06
1.69389e-06
4.30763e-07
2.38097e-06
1.7472e-06
0
0
0
0
0
4.82449e-07
0
0
0
0
0
0
0
0
0
0
5.02578e-07
1.38488e-06
2.09319e-06
2.16737e-06
1.77547e-06
1.16992e-06
6.67772e-07
4.38603e-07
3.90386e-07
4.56323e-07
6.13752e-07
8.43231e-07
1.08658e-06
1.2696e-06
1.33221e-06
1.24435e-06
1.03042e-06
7.66289e-07
5.73054e-07
5.12083e-07
5.83324e-07
7.40723e-07
9.13173e-07
9.95677e-07
9.23875e-07
6.439e-07
1.69912e-07
0
0
0
0
0
0
0
0
0
0
0
0
0
0
3.62045e-07
7.56562e-07
1.07562e-06
7.72328e-07
4.62918e-07
7.83459e-07
8.47329e-07
4.39859e-08
0
0
8.18832e-08
0
0
0
0
0
0
0
0
0
0
0
0
0
0
0
0
0
0
0
0
0
0
0
0
0
0
0
0
6.84111e-07
1.46189e-06
1.97604e-06
2.56131e-06
3.44106e-06
4.77705e-06
6.594e-06
9.05047e-06
1.25313e-05
1.7501e-05
2.48624e-05
2.81543e-05
0
0
0
0
0
1.07341e-06
4.17751e-06
3.4863e-06
2.15482e-06
1.3034e-06
8.33452e-07
5.81962e-07
4.30102e-07
2.48437e-07
2.25073e-10
0
0
8.11439e-08
2.19705e-07
0
0
0
0
2.85616e-08
1.5502e-06
4.81358e-06
2.52831e-06
1.47219e-06
9.92195e-07
0
0
0
0
0
1.86747e-06
2.28487e-06
0
0
0
0
0
0
0
0
0
0
0
0
0
0
0
2.27951e-06
0
0
0
0
3.97814e-06
1.35778e-05
1.92612e-05
1.89326e-05
1.54343e-05
1.2902e-05
1.07956e-05
7.79385e-06
5.38008e-06
3.8634e-06
2.92029e-06
2.0895e-06
1.3804e-06
0
1.44369e-06
1.49192e-06
0
0
0
0
0
0
0
0
0
0
0
0
0
0
0
0
6.87156e-08
5.97835e-07
1.08987e-06
1.49731e-06
1.51343e-06
1.26901e-06
8.98975e-07
5.49307e-07
3.18124e-07
2.00173e-07
1.73596e-07
2.31953e-07
3.66222e-07
5.45809e-07
7.13312e-07
8.04805e-07
7.73772e-07
6.29693e-07
4.41672e-07
3.05642e-07
2.74612e-07
3.37324e-07
4.50564e-07
5.49564e-07
5.81185e-07
5.18354e-07
3.61685e-07
1.30091e-07
0
0
0
0
0
0
0
0
0
0
0
0
0
0
0
4.88545e-07
4.73833e-07
3.46546e-07
9.4602e-07
1.18219e-06
2.3592e-07
0
0
1.8827e-10
0
0
0
0
0
0
0
0
0
0
2.23214e-08
1.58611e-07
9.48858e-08
2.03187e-08
0
0
0
0
0
0
0
0
0
0
0
0
0
0
3.32968e-07
1.93075e-06
2.86304e-06
3.56804e-06
4.39409e-06
5.61549e-06
7.40992e-06
1.00195e-05
1.39991e-05
1.99811e-05
2.78265e-05
2.2172e-05
0
0
0
0
0
3.9075e-06
3.86709e-06
2.48701e-06
1.49882e-06
9.29328e-07
6.29982e-07
4.78781e-07
4.06733e-07
3.25094e-07
1.67711e-07
2.01096e-08
0
3.52157e-08
2.98896e-07
0
0
0
0
8.38915e-07
1.9568e-06
2.21267e-06
0
0
0
3.8212e-06
3.80244e-06
0
0
0
6.31311e-07
1.78343e-06
4.67544e-07
0
0
0
0
0
0
0
0
0
0
0
0
4.21355e-06
2.01107e-05
1.03081e-05
0
0
0
0
0
8.60264e-06
1.72878e-05
1.83403e-05
1.54254e-05
1.28807e-05
1.06964e-05
7.63873e-06
5.21317e-06
3.77212e-06
2.7131e-06
1.75096e-06
1.01967e-06
0
0
8.6908e-07
0
0
0
0
0
0
0
0
0
0
0
0
0
0
0
0
0
3.92911e-08
2.92722e-07
5.18614e-07
6.54145e-07
6.27709e-07
5.19169e-07
3.60276e-07
1.61523e-07
0
0
0
0
2.36204e-09
1.05364e-07
2.11901e-07
2.75296e-07
2.51749e-07
1.45604e-07
9.27574e-09
0
0
0
0
4.28259e-08
9.19018e-08
1.3466e-07
1.97164e-07
3.17957e-07
5.39321e-07
9.19298e-07
1.52747e-06
2.47881e-06
4.01749e-06
6.62683e-06
1.14632e-05
1.82234e-05
0
0
0
0
0
0
2.54504e-07
3.31598e-07
3.74196e-07
1.24346e-06
1.5402e-06
3.9405e-07
0
0
1.01754e-07
0
0
0
0
0
0
0
0
0
0
2.15255e-08
2.9529e-07
1.99855e-07
8.63318e-08
1.98979e-08
0
0
0
0
0
0
0
0
0
0
0
0
0
0
2.00201e-06
3.65137e-06
4.67871e-06
5.63681e-06
6.85711e-06
8.59534e-06
1.10411e-05
1.4228e-05
1.76514e-05
1.8233e-05
6.91738e-06
0
0
0
0
3.44398e-06
4.0157e-06
2.72051e-06
1.6705e-06
1.02727e-06
6.79956e-07
5.07263e-07
4.27153e-07
4.02027e-07
3.78761e-07
3.01817e-07
1.80586e-07
9.75483e-08
8.66919e-08
2.62286e-07
2.2131e-07
0
0
0
6.55405e-07
7.69651e-07
0
0
0
0
5.72979e-06
5.05448e-06
0
0
0
1.28433e-07
6.3061e-07
1.05929e-06
1.38528e-07
0
0
0
0
0
0
0
0
0
0
4.64372e-06
3.62412e-05
6.87275e-05
3.32066e-05
0
0
0
0
0
1.89041e-06
1.42476e-05
1.71706e-05
1.48356e-05
1.24972e-05
1.03316e-05
7.32082e-06
4.95866e-06
3.53615e-06
2.46738e-06
1.33818e-06
5.82587e-07
8.57568e-08
0
0
0
0
0
0
0
5.38576e-08
0
0
0
0
0
5.34545e-07
7.41195e-07
0
0
0
0
0
0
0
0
0
0
0
0
0
0
0
0
0
0
0
0
0
0
0
0
0
0
0
0
0
0
0
1.60163e-07
6.6647e-07
1.43488e-06
2.55401e-06
4.21536e-06
6.79401e-06
1.08111e-05
1.59643e-05
1.13954e-05
0
0
0
0
0
0
3.42744e-07
1.68924e-07
5.13341e-07
1.6761e-06
1.9111e-06
5.07148e-07
0
0
2.3274e-07
2.12125e-07
0
0
0
0
0
0
0
0
0
0
2.88277e-07
2.40828e-07
1.31885e-07
5.87793e-08
8.45986e-09
0
0
0
0
0
0
0
0
0
0
0
0
0
3.73964e-07
3.42248e-06
5.15301e-06
6.40021e-06
7.68275e-06
9.28605e-06
1.12831e-05
1.34574e-05
1.48718e-05
1.23364e-05
0
0
0
0
3.12391e-06
3.91129e-06
2.78685e-06
1.75952e-06
1.09418e-06
7.23813e-07
5.41226e-07
4.54779e-07
4.21714e-07
4.18028e-07
4.19677e-07
3.9045e-07
3.04263e-07
2.08271e-07
1.59593e-07
2.30802e-07
2.94498e-07
0
0
0
0
0
0
0
0
3.9582e-07
5.00147e-06
4.1136e-06
1.01407e-06
0
0
0
5.02094e-08
6.8535e-07
3.91341e-07
0
0
0
0
0
0
0
0
0
0
2.59798e-05
6.60139e-05
0.000123466
9.31946e-05
0
0
0
0
0
0
1.01955e-05
1.52695e-05
1.37524e-05
1.17781e-05
9.68924e-06
6.82074e-06
4.59416e-06
3.18827e-06
2.07544e-06
8.983e-07
9.50223e-08
4.38458e-07
0
0
0
0
0
0
0
4.86873e-06
5.9144e-06
8.50324e-06
0
0
0
1.64715e-06
1.71853e-06
0
0
0
0
0
0
0
0
0
0
0
0
0
0
0
0
0
0
0
0
0
0
0
0
0
0
0
0
0
0
0
0
3.55564e-07
1.30242e-06
2.67665e-06
4.67885e-06
7.50515e-06
1.09665e-05
1.19178e-05
3.13288e-06
0
0
0
0
0
3.87817e-07
5.01279e-07
0
9.29747e-07
2.20698e-06