/*--------------------------------*- C++ -*----------------------------------*\
  =========                 |
  \\      /  F ield         | OpenFOAM: The Open Source CFD Toolbox
   \\    /   O peration     | Website:  https://openfoam.org
    \\  /    A nd           | Version:  6
     \\/     M anipulation  |
\*---------------------------------------------------------------------------*/
FoamFile
{
    version     2.0;
    format      ascii;
    class       volScalarField;
    location    "0.35";
    object      p;
}
// * * * * * * * * * * * * * * * * * * * * * * * * * * * * * * * * * * * * * //

dimensions      [0 2 -2 0 0 0 0];

internalField   nonuniform List<scalar> 
12225
(
1048.01
1036.07
1024.89
1015.18
1006.43
998.295
990.635
983.375
976.442
969.742
963.187
956.723
950.325
943.986
937.666
931.256
924.433
916.59
1048.84
1036.02
1024.83
1015.13
1006.38
998.271
990.63
983.376
976.438
969.728
963.168
956.704
950.312
943.98
937.668
931.271
924.534
917.03
1049.97
1035.96
1024.7
1015.05
1006.34
998.249
990.617
983.369
976.429
969.712
963.146
956.685
950.308
943.998
937.709
931.348
924.738
917.672
1049.99
1035.78
1024.55
1014.94
1006.26
998.211
990.616
983.382
976.436
969.705
963.134
956.686
950.334
944.052
937.797
931.502
925.063
918.444
1048.97
1035.34
1024.27
1014.76
1006.16
998.156
990.588
983.373
976.441
969.722
963.163
956.732
950.403
944.153
937.949
931.749
925.514
919.304
1048.76
1034.74
1023.87
1014.5
1006.01
998.075
990.554
983.368
976.453
969.744
963.197
956.787
950.493
944.295
938.167
932.091
926.074
920.215
1047.23
1033.89
1023.37
1014.2
1005.83
997.989
990.529
983.376
976.48
969.788
963.263
956.885
950.637
944.503
938.466
932.528
926.722
921.145
1044.66
1032.67
1022.72
1013.85
1005.63
997.886
990.489
983.384
976.525
969.862
963.364
957.022
950.827
944.77
938.841
933.05
927.436
922.084
1041.21
1031.25
1021.91
1013.37
1005.36
997.75
990.44
983.391
976.571
969.944
963.487
957.191
951.054
945.07
939.241
933.585
928.145
922.982
1036.58
1029.59
1020.96
1012.83
1005.08
997.621
990.409
983.428
976.659
970.076
963.662
957.417
951.345
945.445
939.723
934.197
928.903
923.886
1038.12
1028.03
1020
1012.34
1004.82
997.497
990.386
983.48
976.764
970.225
963.861
957.676
951.674
945.858
940.237
934.83
929.665
924.771
1035.14
1026.49
1019.05
1011.76
1004.53
997.377
990.364
983.534
976.888
970.413
964.11
957.984
952.043
946.294
940.749
935.429
930.356
925.551
1030.61
1024.47
1018.01
1011.21
1004.27
997.308
990.426
983.675
977.068
970.619
964.349
958.274
952.402
946.737
941.286
936.062
931.078
926.349
1024.95
1022.25
1016.93
1010.78
1004.14
997.289
990.475
983.799
977.283
970.93
964.745
958.737
952.919
947.306
941.914
936.757
931.846
927.186
1022.25
1020.84
1016.2
1010.34
1003.93
997.332
990.719
984.145
977.665
971.334
965.187
959.244
953.513
947.996
942.7
937.629
932.791
928.186
1022.06
1019.88
1015.91
1010.49
1004.26
997.713
991.11
984.575
978.166
971.911
965.829
959.939
954.257
948.792
943.554
938.546
933.77
929.222
1026.03
1021.89
1016.9
1011.17
1004.92
998.464
991.947
985.439
979.021
972.765
966.711
960.866
955.23
949.81
944.616
939.653
934.916
930.397
1025.95
1024.34
1019.6
1013.46
1006.79
999.959
993.184
986.553
980.081
973.8
967.743
961.918
956.321
950.949
945.809
940.898
936.209
931.735
1040.68
1033.03
1025.12
1017.36
1009.77
1002.4
995.304
988.425
981.765
975.366
969.24
963.368
957.737
952.344
947.188
942.263
937.561
933.073
1056.86
1042.22
1031.12
1021.64
1012.99
1004.95
997.401
990.197
983.316
976.768
970.529
964.568
958.874
953.445
948.271
943.339
938.637
934.157
1061.06
1046.74
1034.48
1024.28
1015.12
1006.7
998.838
991.424
984.408
977.766
971.461
965.461
959.748
954.309
949.127
944.184
939.467
934.967
1063.91
1048.34
1036.21
1025.92
1016.57
1007.96
999.962
992.432
985.318
978.592
972.218
966.158
960.391
954.904
949.682
944.71
939.975
935.466
1061.75
1048.43
1037.04
1026.86
1017.57
1008.92
1000.79
993.145
985.947
979.155
972.722
966.618
960.827
955.331
950.111
945.145
940.414
935.906
1055.95
1047.29
1037.32
1027.47
1018.19
1009.5
1001.31
993.602
986.357
979.545
973.11
967.004
961.202
955.687
950.443
945.452
940.699
936.172
1051.76
1047.01
1037.75
1027.94
1018.63
1009.92
1001.73
994.001
986.722
979.863
973.379
967.233
961.405
955.877
950.626
945.634
940.881
936.355
1055.58
1048.24
1038.33
1028.36
1018.98
1010.24
1002.01
994.236
986.931
980.063
973.576
967.426
961.588
956.044
950.776
945.769
941.006
936.477
1061.36
1049.85
1039.01
1028.74
1019.19
1010.4
1002.17
994.398
987.065
980.16
973.648
967.493
961.662
956.129
950.87
945.865
941.103
936.571
1067.09
1051.12
1039.4
1028.94
1019.35
1010.55
1002.31
994.524
987.182
980.274
973.758
967.592
961.744
956.19
950.911
945.892
941.121
936.588
1069.11
1052.05
1039.77
1029.09
1019.44
1010.62
1002.37
994.561
987.198
980.278
973.759
967.597
961.76
956.219
950.951
945.936
941.162
936.621
1068.13
1052.32
1039.87
1029.16
1019.48
1010.66
1002.42
994.612
987.24
980.308
973.78
967.614
961.772
956.227
950.953
945.932
941.156
936.618
831.408
831.54
831.733
831.686
831.178
830.209
828.948
827.593
826.293
825.156
824.263
823.672
823.404
823.414
823.611
823.895
824.091
823.999
823.526
822.751
821.918
821.086
820.115
819.041
818.002
816.908
815.547
814.081
812.713
811.28
809.576
807.495
804.972
801.994
798.597
794.862
790.883
786.75
782.549
778.352
774.219
770.203
766.35
762.699
759.286
756.144
753.304
750.796
748.645
746.869
745.481
744.492
743.906
743.72
743.913
744.454
745.305
746.425
747.765
749.276
750.907
752.608
754.329
756.023
757.64
759.125
760.412
761.413
762.006
762.019
761.215
759.335
756.163
751.598
745.759
739.249
733.121
728.307
725.263
723.913
723.657
723.485
722.054
719.159
716.002
713.47
711.051
707.75
704.819
702.62
698.152
690.084
679.741
668.356
656.825
645.661
635.194
625.649
617.221
610.07
604.326
600.075
597.352
596.125
596.28
597.647
600.007
603.103
606.662
610.406
614.069
617.412
620.229
622.361
623.704
624.21
623.878
622.751
620.9
618.413
615.387
611.923
608.118
604.067
599.861
595.577
591.273
586.977
582.682
578.343
573.903
569.323
564.596
559.734
554.752
549.662
544.481
539.229
533.934
528.624
523.324
518.06
512.848
507.692
502.586
497.501
492.416
487.314
482.205
477.13
472.123
467.352
462.818
458.573
455.322
451.95
445.339
436.057
428.721
423.585
417.718
411.052
404.821
400.089
396.796
393.934
390.58
386.412
381.57
376.33
370.87
365.232
359.48
353.785
348.203
342.452
336.296
329.996
323.807
317.422
831.126
831.078
830.873
830.375
829.551
828.458
827.203
825.9
824.65
823.541
822.648
822.024
821.689
821.652
821.876
822.272
822.706
822.952
822.868
822.519
821.985
821.245
820.308
819.317
818.313
817.319
816.052
814.414
812.748
810.968
808.901
806.524
803.783
800.676
797.219
793.478
789.524
785.434
781.282
777.131
773.039
769.053
765.218
761.574
758.161
755.017
752.178
749.678
747.546
745.806
744.472
743.55
743.033
742.907
743.151
743.735
744.622
745.767
747.122
748.637
750.26
751.94
753.628
755.276
756.836
758.255
759.467
760.385
760.882
760.778
759.827
757.743
754.286
749.345
743.147
736.529
730.609
726.075
723.157
721.781
721.444
721.531
720.888
718.79
716.226
713.583
710.84
707.904
704.166
700.15
694.198
685.705
675.704
664.92
653.993
643.295
633.155
623.828
615.553
608.527
602.9
598.763
596.141
594.996
595.233
596.688
599.141
602.337
605.997
609.841
613.603
617.038
619.94
622.145
623.547
624.095
623.792
622.681
620.836
618.347
615.311
611.83
608.003
603.925
599.686
595.368
591.033
586.722
582.431
578.113
573.703
569.155
564.458
559.625
554.667
549.597
544.428
539.183
533.891
528.581
523.279
518.013
512.797
507.637
502.53
497.446
492.358
487.254
482.129
477.045
472.028
467.184
462.669
458.251
454.447
450.845
444.079
435.28
428.847
423.807
417.694
410.803
404.462
399.793
396.674
393.954
390.661
386.497
381.628
376.361
370.888
365.244
359.472
353.741
348.134
342.377
336.197
329.882
323.76
317.377
830.583
830.194
829.404
828.443
827.42
826.326
825.158
823.959
822.793
821.735
820.849
820.181
819.768
819.638
819.787
820.159
820.68
821.261
821.757
821.982
821.798
821.268
820.577
819.848
818.981
817.779
816.307
814.501
812.453
810.196
807.698
804.934
801.891
798.574
795
791.216
787.271
783.225
779.132
775.041
770.999
767.05
763.24
759.611
756.209
753.076
750.253
747.777
745.68
743.985
742.706
741.849
741.406
741.356
741.675
742.326
743.269
744.455
745.834
747.353
748.959
750.6
752.227
753.792
755.247
756.543
757.615
758.37
758.677
758.354
757.149
754.746
750.832
745.293
738.574
731.911
726.366
722.184
719.499
718.347
718.332
718.818
719.183
718.451
717.092
714.601
710.99
706.818
701.608
695.291
687.863
679.386
670.104
660.236
650.092
639.965
630.187
621.078
612.933
605.998
600.451
596.402
593.885
592.866
593.243
594.856
597.482
600.859
604.705
608.735
612.679
616.289
619.351
621.696
623.209
623.84
623.593
622.518
620.692
618.208
615.164
611.66
607.797
603.672
599.375
594.989
590.589
586.233
581.934
577.647
573.289
568.801
564.163
559.382
554.471
549.436
544.293
539.064
533.781
528.474
523.173
517.906
512.689
507.528
502.419
497.333
492.241
487.127
481.979
476.851
471.788
466.863
462.178
457.59
453.335
449.071
442.72
435.155
428.807
423.386
417.466
410.567
404.078
399.508
396.611
394.04
390.778
386.58
381.671
376.387
370.926
365.298
359.514
353.731
348.072
342.284
336.072
329.739
323.631
317.154
829.103
828.53
827.614
826.636
825.635
824.575
823.453
822.307
821.197
820.196
819.356
818.714
818.298
818.127
818.211
818.538
819.08
819.79
820.53
821.043
821.124
820.857
820.419
819.769
818.799
817.426
815.694
813.644
811.312
808.734
805.919
802.856
799.549
796.019
792.303
788.444
784.479
780.444
776.371
772.295
768.255
764.296
760.466
756.814
753.39
750.242
747.417
744.953
742.884
741.236
740.022
739.246
738.899
738.957
739.387
740.144
741.178
742.435
743.858
745.393
746.983
748.578
750.127
751.583
752.902
754.041
754.937
755.494
755.576
755.014
753.587
750.964
746.737
740.854
734.078
727.885
722.844
718.836
716.161
715.105
715.417
716.385
717.534
718.091
717.381
714.574
710.124
704.299
697.423
689.955
682.102
673.814
664.99
655.645
645.919
636.079
626.461
617.433
609.335
602.451
596.98
593.038
590.661
589.81
590.383
592.213
595.078
598.708
602.813
607.1
611.297
615.151
618.44
620.982
622.655
623.404
623.241
622.222
620.434
617.975
614.944
611.437
607.548
603.373
599.006
594.529
590.028
585.588
581.253
576.989
572.699
568.294
563.741
559.04
554.196
549.213
544.104
538.896
533.62
528.311
523.004
517.725
512.498
507.332
502.221
497.142
492.052
486.924
481.749
476.565
471.416
466.354
461.5
456.759
452.114
447.457
441.734
434.944
428.466
422.883
417.106
410.413
404.118
399.683
396.859
394.293
390.974
386.706
381.753
376.438
370.962
365.346
359.572
353.773
348.073
342.25
336.025
329.667
323.446
316.737
827.28
826.807
826.075
825.222
824.266
823.211
822.088
820.94
819.83
818.834
818.011
817.397
817.02
816.883
816.975
817.283
817.806
818.518
819.271
819.796
819.969
819.863
819.48
818.748
817.585
816.037
814.148
811.944
809.439
806.654
803.595
800.279
796.745
793.038
789.203
785.271
781.263
777.194
773.084
768.961
764.858
760.822
756.901
753.154
749.638
746.415
743.539
741.059
739.014
737.431
736.321
735.683
735.497
735.729
736.333
737.252
738.426
739.791
741.284
742.849
744.432
745.985
747.459
748.813
750.006
751.001
751.743
752.138
752.056
751.356
749.854
747.217
743.025
737.366
731.269
725.969
721.338
717.371
714.61
713.43
713.693
714.743
716.076
717.074
716.021
712.74
707.435
700.543
693.022
685.361
677.502
669.256
660.482
651.174
641.453
631.589
621.93
612.874
604.79
597.976
592.629
588.85
586.659
586.016
586.82
588.908
592.056
595.989
600.403
604.996
609.492
613.635
617.196
619.977
621.841
622.729
622.663
621.715
619.983
617.572
614.579
611.098
607.219
603.034
598.627
594.075
589.464
584.903
580.485
576.209
571.974
567.664
563.218
558.619
553.862
548.946
543.882
538.695
533.424
528.106
522.776
517.469
512.213
507.027
501.911
496.839
491.76
486.629
481.42
476.163
470.922
465.744
460.711
455.77
450.874
446.062
440.677
434.306
427.924
422.331
416.798
410.647
404.766
400.405
397.475
394.771
391.314
386.925
381.886
376.516
371.007
365.389
359.643
353.863
348.141
342.289
336.065
329.669
323.246
316.229
826.033
825.668
825.068
824.299
823.381
822.356
821.264
820.142
819.046
818.051
817.225
816.613
816.244
816.12
816.209
816.488
816.961
817.575
818.152
818.531
818.67
818.49
817.96
817.024
815.698
814.032
812.035
809.701
807.033
804.035
800.728
797.168
793.429
789.575
785.642
781.643
777.578
773.446
769.254
765.02
760.779
756.579
752.486
748.572
744.918
741.6
738.684
736.225
734.264
732.823
731.904
731.491
731.552
732.039
732.889
734.032
735.394
736.904
738.494
740.106
741.692
743.213
744.631
745.908
747.011
747.908
748.555
748.867
748.728
748.019
746.582
744.113
740.295
735.336
730.215
725.673
721.377
717.603
714.91
713.591
713.498
714.13
714.96
715.212
713.344
709.516
703.643
696.519
689.082
681.517
673.631
665.244
656.255
646.708
636.761
626.703
616.897
607.764
599.692
592.977
587.787
584.193
582.203
581.776
582.816
585.17
588.618
592.875
597.625
602.549
607.364
611.82
615.68
618.725
620.795
621.827
621.856
620.974
619.298
616.941
614.002
610.573
606.74
602.591
598.204
593.637
588.958
584.28
579.743
575.403
571.183
566.951
562.613
558.128
553.475
548.641
543.629
538.468
533.199
527.863
522.5
517.147
511.843
506.619
501.485
496.418
491.354
486.222
480.983
475.662
470.321
465.006
459.793
454.687
449.644
444.678
439.372
433.357
427.272
421.8
416.574
411.015
405.628
401.403
398.325
395.396
391.754
387.222
382.072
376.614
371.058
365.448
359.735
353.973
348.237
342.378
336.184
329.751
323.085
315.742
825.748
825.446
824.928
824.217
823.332
822.32
821.226
820.088
818.967
817.942
817.092
816.475
816.116
815.994
816.06
816.281
816.643
817.064
817.396
817.568
817.491
817.077
816.283
815.122
813.64
811.837
809.686
807.17
804.286
801.049
797.513
793.774
789.921
786.006
782.039
778.001
773.869
769.626
765.277
760.844
756.376
751.941
747.623
743.513
739.707
736.292
733.347
730.933
729.089
727.833
727.154
727.025
727.396
728.2
729.357
730.781
732.385
734.086
735.809
737.495
739.1
740.593
741.953
743.157
744.18
745.005
745.602
745.906
745.817
745.23
743.998
741.885
738.72
734.721
730.554
726.622
722.787
719.384
716.877
715.418
714.799
714.698
714.543
713.448
710.732
706.264
700.039
693.013
685.765
678.226
670.2
661.552
652.239
642.358
632.103
621.773
611.752
602.493
594.41
587.79
582.762
579.36
577.571
577.352
578.614
581.216
584.943
589.513
594.589
599.837
604.967
609.735
613.904
617.231
619.524
620.709
620.838
620.021
618.391
616.08
613.199
609.834
606.063
601.98
597.663
593.152
588.478
583.735
579.085
574.643
570.388
566.196
561.95
557.577
553.032
548.286
543.336
538.208
532.944
527.588
522.18
516.763
511.387
506.1
500.931
495.864
490.823
485.704
480.443
475.054
469.604
464.157
458.786
453.531
448.356
443.238
437.958
432.272
426.525
421.238
416.285
411.22
406.329
402.326
399.16
396.015
392.174
387.497
382.242
376.708
371.12
365.524
359.83
354.076
348.341
342.498
336.349
329.876
322.959
315.295
826.537
826.278
825.802
825.115
824.242
823.217
822.075
820.863
819.656
818.539
817.599
816.903
816.477
816.29
816.279
816.401
816.615
816.826
816.926
816.843
816.48
815.785
814.748
813.4
811.744
809.751
807.39
804.647
801.531
798.09
794.418
790.623
786.771
782.869
778.88
774.755
770.461
765.986
761.349
756.595
751.795
747.037
742.423
738.062
734.059
730.513
727.508
725.112
723.366
722.283
721.852
722.032
722.76
723.948
725.497
727.299
729.248
731.245
733.205
735.058
736.752
738.261
739.576
740.695
741.619
742.355
742.907
743.246
743.302
742.971
742.104
740.534
738.201
735.26
732.05
728.798
725.566
722.666
720.426
718.778
717.536
716.535
715.222
712.881
709.274
704.008
697.43
690.408
683.163
675.495
667.225
658.25
648.578
638.342
627.75
617.103
606.815
597.396
589.304
582.806
577.973
574.785
573.196
573.158
574.595
577.38
581.318
586.133
591.484
597.01
602.408
607.444
611.893
615.491
617.999
619.33
619.559
618.83
617.278
615.029
612.207
608.909
605.21
601.197
596.963
592.552
587.956
583.223
578.507
573.963
569.633
565.437
561.254
556.977
552.535
547.881
543.001
537.917
532.667
527.293
521.832
516.33
510.847
505.459
500.229
495.163
490.165
485.084
479.822
474.379
468.825
463.241
457.712
452.295
446.979
441.754
436.516
431.093
425.635
420.535
415.815
411.178
406.766
403.023
399.828
396.502
392.482
387.692
382.375
376.797
371.183
365.598
359.922
354.173
348.443
342.625
336.522
329.995
322.828
314.871
828.413
828.164
827.699
827.014
826.129
825.066
823.85
822.536
821.204
819.941
818.839
817.967
817.357
816.983
816.787
816.721
816.739
816.753
816.64
816.298
815.701
814.813
813.616
812.102
810.253
808.04
805.445
802.471
799.156
795.582
791.859
788.07
784.223
780.267
776.129
771.749
767.103
762.204
757.099
751.862
746.59
741.392
736.388
731.696
727.432
723.7
720.59
718.17
716.487
715.563
715.387
715.916
717.073
718.753
720.829
723.165
725.627
728.094
730.462
732.647
734.585
736.238
737.598
738.684
739.531
740.184
740.69
741.074
741.31
741.304
740.906
739.989
738.531
736.616
734.369
731.899
729.351
727.025
725.096
723.266
721.451
719.548
717.147
713.801
709.2
703.036
696.016
688.802
681.361
673.433
664.844
655.511
645.477
634.894
623.965
612.996
602.446
592.895
584.839
578.507
573.888
570.893
569.45
569.522
571.054
573.936
577.994
582.973
588.525
594.264
599.864
605.096
609.759
613.581
616.264
617.69
617.98
617.341
615.911
613.782
611.06
607.85
604.233
600.289
596.131
591.825
587.348
582.692
577.973
573.359
568.943
564.709
560.556
556.355
552.005
547.441
542.64
537.615
532.393
527.002
521.477
515.864
510.232
504.685
499.35
494.283
489.376
484.399
479.182
473.711
468.059
462.326
456.623
451.026
445.554
440.233
435.022
429.779
424.56
419.653
415.163
410.919
406.946
403.459
400.272
396.816
392.667
387.808
382.464
376.864
371.237
365.669
360.015
354.264
348.531
342.735
336.666
330.07
322.675
314.462
831.359
831.119
830.665
829.986
829.094
828.001
826.73
825.334
823.892
822.478
821.177
820.067
819.193
818.552
818.102
817.8
817.588
817.363
817.005
816.462
815.69
814.628
813.242
811.516
809.431
806.968
804.125
800.927
797.441
793.766
789.995
786.157
782.198
778.023
773.543
768.712
763.533
758.05
752.338
746.498
740.647
734.908
729.412
724.288
719.659
715.637
712.32
709.791
708.115
707.33
707.433
708.378
710.075
712.393
715.171
718.233
721.401
724.522
727.472
730.16
732.519
734.494
736.05
737.203
738.033
738.647
739.147
739.605
740.032
740.352
740.429
740.154
739.499
738.477
737.106
735.423
733.573
731.786
730.038
728.058
725.893
723.306
720.076
715.868
710.222
703.178
695.665
688.127
680.372
672.113
663.175
653.488
643.12
632.225
621.004
609.77
599.02
589.391
581.397
575.216
570.748
567.849
566.457
566.565
568.14
571.073
575.19
580.254
585.925
591.803
597.53
602.87
607.656
611.63
614.441
615.902
616.181
615.581
614.282
612.323
609.752
606.668
603.16
599.305
595.219
591.002
586.648
582.109
577.443
572.805
568.321
564.035
559.889
555.744
551.47
546.992
542.278
537.325
532.139
526.733
521.132
515.38
509.54
503.747
498.233
493.164
488.422
483.653
478.561
473.087
467.329
461.419
455.51
449.726
444.107
438.679
433.453
428.333
423.316
418.61
414.356
410.458
406.866
403.624
400.494
396.981
392.758
387.858
382.507
376.913
371.294
365.739
360.098
354.34
348.596
342.811
336.757
330.092
322.505
314.07
835.198
834.981
834.572
833.951
833.117
832.075
830.843
829.473
828.029
826.565
825.147
823.854
822.746
821.844
821.127
820.551
820.046
819.519
818.88
818.061
816.992
815.623
813.932
811.903
809.514
806.753
803.631
800.195
796.529
792.728
788.844
784.847
780.634
776.084
771.115
765.707
759.893
753.743
747.352
740.831
734.307
727.916
721.8
716.107
710.976
706.543
702.928
700.238
698.56
697.943
698.383
699.827
702.17
705.255
708.886
712.834
716.869
720.786
724.429
727.704
730.568
732.983
734.888
736.233
737.081
737.628
738.097
738.64
739.292
739.971
740.533
740.852
740.875
740.575
739.922
738.94
737.726
736.324
734.577
732.591
730.245
727.249
723.512
718.57
711.969
704.151
696.15
688.24
680.133
671.535
662.266
652.271
641.63
630.498
619.077
607.68
596.822
587.154
579.191
573.069
568.637
565.737
564.338
564.464
566.076
569.038
573.159
578.215
583.897
589.812
595.581
600.947
605.754
609.783
612.669
614.146
614.361
613.71
612.474
610.693
608.316
605.385
602.004
598.26
594.262
590.128
585.884
581.471
576.896
572.279
567.758
563.427
559.274
555.166
550.953
546.55
541.921
537.044
531.903
526.492
520.82
514.9
508.763
502.591
496.789
491.707
487.214
482.753
477.845
472.38
466.486
460.359
454.204
448.196
442.432
436.956
431.761
426.759
421.926
417.422
413.392
409.782
406.515
403.528
400.519
397.025
392.777
387.86
382.522
376.96
371.356
365.8
360.16
354.394
348.633
342.842
336.786
330.06
322.323
313.696
839.682
839.498
839.159
838.639
837.925
837.021
835.94
834.726
833.425
832.067
830.694
829.366
828.137
827.034
826.05
825.152
824.279
823.357
822.308
821.065
819.574
817.804
815.734
813.338
810.591
807.489
804.056
800.355
796.474
792.49
788.411
784.155
779.58
774.555
769.013
762.96
756.452
749.573
742.427
735.136
727.841
720.701
713.884
707.568
701.924
697.11
693.266
690.508
688.916
688.526
689.331
691.279
694.26
698.109
702.603
707.471
712.422
717.188
721.564
725.43
728.757
731.575
733.874
735.563
736.584
737.085
737.405
737.891
738.71
739.788
740.894
741.815
742.418
742.675
742.585
742.168
741.417
740.234
738.645
736.753
734.227
731.063
727.033
721.527
714.169
705.711
697.257
688.983
680.54
671.64
662.102
651.878
641.056
629.796
618.3
606.872
596.005
586.323
578.33
572.163
567.685
564.753
563.341
563.471
565.084
568.013
572.057
577.01
582.59
588.424
594.141
599.46
604.2
608.174
611.053
612.538
612.699
611.953
610.68
608.998
606.805
604.04
600.791
597.169
593.276
589.231
585.087
580.795
576.328
571.765
567.24
562.88
558.718
554.636
550.467
546.118
541.557
536.756
531.676
526.285
520.558
514.446
507.921
501.22
495
489.865
485.665
481.566
476.851
471.366
465.31
458.941
452.506
446.243
440.297
434.749
429.636
424.867
420.321
416.067
412.259
408.896
405.913
403.191
400.362
396.952
392.731
387.831
382.526
377.001
371.41
365.84
360.19
354.415
348.632
342.82
336.748
329.975
322.125
313.337
844.538
844.384
844.124
843.724
843.163
842.438
841.56
840.56
839.466
838.288
837.044
835.765
834.483
833.222
831.983
830.748
829.477
828.121
826.627
824.948
823.048
820.893
818.45
815.684
812.574
809.123
805.372
801.392
797.269
793.055
788.719
784.139
779.146
773.602
767.456
760.735
753.512
745.882
737.961
729.89
721.838
713.993
706.561
699.745
693.736
688.697
684.759
682.018
680.539
680.351
681.453
683.803
687.301
691.782
697.011
702.688
708.467
714.018
719.083
723.505
727.227
730.319
732.89
734.928
736.305
737.02
737.333
737.667
738.423
739.732
741.335
742.83
743.956
744.647
744.956
744.912
744.458
743.534
742.273
740.344
737.828
734.642
730.432
724.561
716.665
707.686
698.825
690.22
681.48
672.34
662.62
652.269
641.378
630.113
618.679
607.358
596.592
586.943
578.895
572.632
568.08
565.1
563.648
563.729
565.26
568.061
571.942
576.711
582.09
587.732
593.298
598.498
603.102
606.911
609.666
611.109
611.236
610.393
609.029
607.366
605.306
602.686
599.55
596.044
592.271
588.329
584.284
580.105
575.746
571.255
566.755
562.387
558.22
554.156
550.017
545.7
541.183
536.452
531.456
526.121
520.366
514.061
507.1
499.789
493.056
487.788
483.819
480.037
475.48
469.939
463.689
457.068
450.35
443.792
437.616
431.962
426.897
422.37
418.227
414.391
410.909
407.813
405.092
402.631
400.023
396.759
392.622
387.78
382.518
377.023
371.44
365.85
360.181
354.395
348.587
342.741
336.644
329.837
321.912
312.995
849.501
849.37
849.179
848.893
848.481
847.929
847.24
846.43
845.511
844.486
843.352
842.115
840.792
839.399
837.946
836.427
834.825
833.114
831.264
829.244
827.018
824.547
821.787
818.699
815.267
811.507
807.468
803.224
798.854
794.387
789.766
784.844
779.433
773.392
766.677
759.334
751.451
743.139
734.53
725.79
717.116
708.728
700.856
693.716
687.496
682.343
678.366
675.642
674.23
674.167
675.465
678.094
681.964
686.912
692.698
699
705.435
711.603
717.209
722.089
726.16
729.463
732.177
734.45
736.222
737.332
737.859
738.196
738.832
740.11
741.941
743.835
745.37
746.394
746.953
747.108
746.862
746.229
745.094
743.306
740.968
737.815
733.569
727.552
719.332
709.946
700.733
691.835
682.841
673.526
663.715
653.349
642.509
631.365
620.124
609.045
598.505
588.986
580.933
574.579
569.921
566.852
565.308
565.261
566.613
569.194
572.838
577.353
582.449
587.797
593.107
598.1
602.487
606.03
608.533
609.84
609.927
609.018
607.546
605.843
603.864
601.368
598.322
594.907
591.257
587.432
583.487
579.414
575.161
570.752
566.297
561.941
557.777
553.728
549.609
545.306
540.813
536.141
531.243
525.996
520.252
513.794
506.447
498.583
491.353
485.865
481.939
478.262
473.713
468.062
461.609
454.708
447.666
440.784
434.335
428.525
423.486
419.205
415.506
412.21
409.22
406.498
404.064
401.864
399.503
396.439
392.447
387.699
382.486
377.015
371.434
365.819
360.125
354.328
348.494
342.606
336.478
329.65
321.686
312.676
854.398
854.303
854.176
853.975
853.677
853.252
852.688
851.995
851.184
850.245
849.165
847.937
846.573
845.084
843.48
841.767
839.942
837.992
835.9
833.642
831.183
828.477
825.474
822.138
818.457
814.456
810.187
805.718
801.118
796.403
791.504
786.267
780.499
774.05
766.878
759.034
750.627
741.784
732.654
723.424
714.311
705.557
697.402
690.065
683.722
678.503
674.499
671.779
670.4
670.411
671.828
674.621
678.707
683.933
690.053
696.746
703.612
710.189
716.109
721.239
725.55
729.033
731.841
734.245
736.327
737.867
738.711
739.122
739.654
740.799
742.637
744.736
746.545
747.799
748.504
748.769
748.612
748.094
747.07
745.572
743.332
740.324
736.184
730.247
721.999
712.381
702.873
693.712
684.514
675.082
665.265
654.99
644.319
633.412
622.475
611.749
601.551
592.275
584.31
577.91
573.14
569.942
568.244
567.993
569.088
571.382
574.727
578.918
583.65
588.619
593.583
598.263
602.326
605.5
607.643
608.706
608.713
607.785
606.254
604.487
602.516
600.098
597.13
593.789
590.25
586.55
582.711
578.734
574.581
570.259
565.865
561.539
557.385
553.349
549.244
544.948
540.464
535.836
531.032
525.891
520.201
513.676
506.102
497.894
490.312
484.526
480.344
476.416
471.617
465.722
459.011
451.799
444.363
437.066
430.283
424.285
419.268
415.265
412.07
409.422
407.086
404.884
402.812
400.895
398.806
395.993
392.195
387.573
382.419
376.968
371.385
365.744
360.024
354.214
348.353
342.42
336.256
329.424
321.456
312.388
859.302
859.272
859.214
859.067
858.813
858.437
857.926
857.279
856.504
855.596
854.538
853.31
851.91
850.351
848.648
846.811
844.841
842.732
840.474
838.046
835.418
832.545
829.378
825.877
822.032
817.87
813.437
808.794
803.993
799.047
793.896
788.397
782.368
775.652
768.187
760.022
751.274
742.091
732.638
723.112
713.742
704.776
696.459
689.009
682.593
677.331
673.307
670.585
669.226
669.275
670.747
673.606
677.769
683.09
689.328
696.147
703.161
709.9
715.905
721.026
725.356
728.937
731.821
734.259
736.5
738.414
739.599
740.067
740.476
741.519
743.3
745.403
747.333
748.754
749.569
749.868
749.776
749.266
748.355
746.951
744.829
741.901
737.959
732.36
724.448
714.863
705.158
695.787
686.446
676.953
667.197
657.103
646.704
636.139
625.599
615.309
605.535
596.596
588.818
582.449
577.599
574.258
572.365
571.858
572.646
574.605
577.592
581.377
585.657
590.174
594.709
598.964
602.574
605.271
606.969
607.71
607.572
606.638
605.117
603.315
601.304
598.895
595.984
592.707
589.263
585.686
581.953
578.068
574.009
569.779
565.458
561.177
557.043
553.014
548.917
544.625
540.145
535.544
530.813
525.777
520.176
513.706
506.154
497.915
490.17
483.992
479.21
474.633
469.289
462.978
455.884
448.234
440.291
432.463
425.245
419.018
414.029
410.355
407.76
405.895
404.392
402.888
401.299
399.721
397.94
395.419
391.856
387.389
382.31
376.88
371.29
365.625
359.881
354.057
348.172
342.193
335.991
329.166
321.226
312.138
864.011
863.987
863.93
863.776
863.496
863.112
862.605
861.965
861.194
860.287
859.23
858.005
856.594
854.998
853.23
851.308
849.237
847.018
844.641
842.091
839.345
836.364
833.105
829.529
825.619
821.387
816.874
812.128
807.189
802.071
796.731
791.061
784.901
778.1
770.574
762.342
753.515
744.247
734.716
725.124
715.698
706.688
698.336
690.856
684.413
679.125
675.078
672.341
670.973
671.017
672.476
675.307
679.41
684.646
690.784
697.464
704.294
710.849
716.657
721.522
725.624
729.119
732.018
734.473
736.754
738.865
740.391
741.069
741.43
742.346
744.029
745.983
747.761
749.155
750.047
750.382
750.279
749.793
748.864
747.393
745.355
742.471
738.58
733.399
726.196
717.042
707.346
697.869
688.478
679
669.361
659.507
649.449
639.292
629.205
619.39
610.078
601.532
594.022
587.77
582.902
579.442
577.353
576.581
577.054
578.664
581.248
584.559
588.331
592.352
596.392
600.115
603.165
605.32
606.549
606.939
606.601
605.618
604.126
602.327
600.272
597.834
594.952
591.743
588.376
584.894
581.252
577.446
573.473
569.335
565.096
560.874
556.764
552.734
548.633
544.343
539.868
535.279
530.587
525.629
520.14
513.849
506.585
498.635
490.895
484.219
478.552
473.025
466.897
459.983
452.327
444.042
435.404
426.9
419.148
412.654
407.725
404.439
402.529
401.57
401.077
400.465
399.506
398.353
396.921
394.722
391.425
387.137
382.148
376.745
371.153
365.47
359.706
353.868
347.958
341.934
335.692
328.882
320.998
311.929
868.261
868.115
867.941
867.728
867.439
867.046
866.535
865.894
865.118
864.207
863.148
861.921
860.507
858.897
857.093
855.109
852.959
850.648
848.174
845.526
842.687
839.63
836.32
832.718
828.799
824.562
820.031
815.246
810.239
805.026
799.582
793.831
787.651
780.908
773.505
765.43
756.76
747.64
738.249
728.786
719.478
710.563
702.279
694.837
688.404
683.107
679.041
676.284
674.893
674.893
676.273
678.986
682.917
687.916
693.773
700.114
706.532
712.663
718.066
722.504
726.222
729.504
732.332
734.741
737.01
739.252
741.096
742.108
742.598
743.39
744.816
746.501
748.051
749.286
750.108
750.458
750.312
749.727
748.744
747.244
745.085
742.199
738.37
733.456
726.997
718.61
709.216
699.776
690.421
681.027
671.544
661.948
652.242
642.502
632.869
623.524
614.668
606.524
599.313
593.228
588.393
584.853
582.603
581.609
581.808
583.083
585.243
588.06
591.328
594.852
598.354
601.481
603.934
605.567
606.38
606.457