/*--------------------------------*- C++ -*----------------------------------*\
  =========                 |
  \\      /  F ield         | OpenFOAM: The Open Source CFD Toolbox
   \\    /   O peration     | Website:  https://openfoam.org
    \\  /    A nd           | Version:  6
     \\/     M anipulation  |
\*---------------------------------------------------------------------------*/
FoamFile
{
    version     2.0;
    format      ascii;
    class       volSymmTensorField;
    location    "0.35";
    object      UPrime2Mean;
}
// * * * * * * * * * * * * * * * * * * * * * * * * * * * * * * * * * * * * * //

dimensions      [0 2 -2 0 0 0 0];

internalField   nonuniform List<symmTensor> 
12225
(
(0.0232173 -6.51868e-05 0 0.00366843 0 0)
(0.0142414 -0.000161262 0 0.00205452 0 0)
(0.0128983 -0.000173658 0 0.00147242 0 0)
(0.0131061 -0.000192594 0 0.0011291 0 0)
(0.0138915 -0.000226472 0 0.000899373 0 0)
(0.0159006 -0.000275204 0 0.000734404 0 0)
(0.0201375 -0.000411692 0 0.00061666 0 0)
(0.0268981 -0.00053714 0 0.000522319 0 0)
(0.038034 -0.000984713 0 0.000470039 0 0)
(0.0527782 -0.00110211 0 0.000403454 0 0)
(0.0780047 -0.00260147 0 0.000432599 0 0)
(0.108027 -0.00223459 0 0.000369178 0 0)
(0.167196 -0.0073431 0 0.000634488 0 0)
(0.229735 -0.00450869 0 0.000566514 0 0)
(0.378194 -0.0228153 0 0.00194231 0 0)
(0.521997 -0.0101149 0 0.00203773 0 0)
(0.941705 -0.0830157 0 0.0106052 0 0)
(1.38832 -0.0254721 0 0.00680301 0 0)
(0.0247754 0.00038168 0 0.00329228 0 0)
(0.0166516 0.000409947 0 0.00164484 0 0)
(0.0140714 0.000320024 0 0.00115751 0 0)
(0.0127794 0.000249606 0 0.00093716 0 0)
(0.0119712 0.000190347 0 0.000811275 0 0)
(0.0117037 7.51825e-05 0 0.00073403 0 0)
(0.0121944 -0.000134526 0 0.000682266 0 0)
(0.0136846 -0.000504685 0 0.000675756 0 0)
(0.01656 -0.000993892 0 0.000675195 0 0)
(0.0214232 -0.00187565 0 0.000778806 0 0)
(0.0292307 -0.00294461 0 0.000867838 0 0)
(0.0417339 -0.00518469 0 0.00122485 0 0)
(0.0610472 -0.00781456 0 0.00156163 0 0)
(0.0924632 -0.0137929 0 0.00264817 0 0)
(0.140259 -0.0214575 0 0.00398865 0 0)
(0.224239 -0.0391116 0 0.00766289 0 0)
(0.348129 -0.0685542 0 0.0145475 0 0)
(0.585663 -0.134487 0 0.0343802 0 0)
(0.0258856 0.000275243 0 0.00403097 0 0)
(0.0176027 0.00046448 0 0.00209961 0 0)
(0.0151696 0.000232186 0 0.00143202 0 0)
(0.0139674 9.16224e-06 0 0.00114942 0 0)
(0.0132286 -0.000141859 0 0.00100611 0 0)
(0.0130375 -0.000293768 0 0.000934653 0 0)
(0.0134842 -0.000535288 0 0.000917284 0 0)
(0.0146623 -0.000927593 0 0.000949813 0 0)
(0.0167783 -0.00154025 0 0.00105921 0 0)
(0.0201466 -0.00245524 0 0.00125826 0 0)
(0.0252418 -0.00388752 0 0.00162456 0 0)
(0.0328089 -0.00604205 0 0.00221705 0 0)
(0.0439364 -0.00951379 0 0.00328245 0 0)
(0.0603805 -0.0149172 0 0.00508442 0 0)
(0.0847518 -0.0239657 0 0.00854755 0 0)
(0.12048 -0.0395631 0 0.0153052 0 0)
(0.171737 -0.067131 0 0.0298075 0 0)
(0.231667 -0.122119 0 0.0726088 0 0)
(0.0249356 0.000328251 0 0.00469232 0 0)
(0.0163687 0.000329614 0 0.00263226 0 0)
(0.0138913 0.000144244 0 0.00183796 0 0)
(0.0127081 -1.72354e-05 0 0.00151249 0 0)
(0.012013 -0.000175351 0 0.00136126 0 0)
(0.0118493 -0.00039455 0 0.00129791 0 0)
(0.0122778 -0.000733559 0 0.0012973 0 0)
(0.0133902 -0.00125936 0 0.00137427 0 0)
(0.0153712 -0.00204223 0 0.00155679 0 0)
(0.0185512 -0.00320871 0 0.00189067 0 0)
(0.0233181 -0.00495564 0 0.00246921 0 0)
(0.0303803 -0.00758535 0 0.00340326 0 0)
(0.0404604 -0.0116869 0 0.00504307 0 0)
(0.054968 -0.0179463 0 0.00775607 0 0)
(0.074964 -0.0282376 0 0.0129692 0 0)
(0.102009 -0.044412 0 0.022428 0 0)
(0.134916 -0.0718365 0 0.0431331 0 0)
(0.167313 -0.112265 0 0.083468 0 0)
(0.0261313 0.000309061 0 0.0049352 0 0)
(0.0171329 0.000453354 0 0.00279524 0 0)
(0.0142949 0.000166307 0 0.00193303 0 0)
(0.0132199 -9.00614e-05 0 0.00160966 0 0)
(0.012664 -0.000293729 0 0.00149504 0 0)
(0.0124616 -0.000536957 0 0.00148891 0 0)
(0.0127149 -0.000902603 0 0.00156507 0 0)
(0.0135974 -0.00147963 0 0.0017438 0 0)
(0.0153265 -0.00236816 0 0.00206553 0 0)
(0.018161 -0.00371834 0 0.00261064 0 0)
(0.0224884 -0.00574442 0 0.00348511 0 0)
(0.0288266 -0.00881107 0 0.00491052 0 0)
(0.0379539 -0.0134372 0 0.0072273 0 0)
(0.0506302 -0.0205344 0 0.0111657 0 0)
(0.0678538 -0.0313937 0 0.0179623 0 0)
(0.0893336 -0.0481782 0 0.0304711 0 0)
(0.114164 -0.072861 0 0.0528668 0 0)
(0.136975 -0.105949 0 0.0929002 0 0)
(0.0252011 0.000145759 0 0.00520223 0 0)
(0.016427 1.05416e-05 0 0.00314613 0 0)
(0.0142465 -0.000151531 0 0.00220726 0 0)
(0.0133887 -0.00034189 0 0.00186325 0 0)
(0.0128332 -0.000542889 0 0.00175619 0 0)
(0.0126444 -0.000817685 0 0.00178501 0 0)
(0.0129731 -0.00124994 0 0.00192767 0 0)
(0.0139433 -0.00193308 0 0.0022069 0 0)
(0.0157101 -0.00297956 0 0.00268146 0 0)
(0.0184778 -0.00454405 0 0.00344667 0 0)
(0.0225686 -0.00686487 0 0.0046593 0 0)
(0.0283824 -0.0102884 0 0.00657886 0 0)
(0.0364854 -0.0153637 0 0.00965731 0 0)
(0.0473069 -0.0228562 0 0.0147042 0 0)
(0.0612965 -0.0338751 0 0.0230965 0 0)
(0.0778211 -0.0497524 0 0.0373727 0 0)
(0.0959216 -0.0712889 0 0.0607938 0 0)
(0.111991 -0.0979911 0 0.0985546 0 0)
(0.0255114 -2.63192e-05 0 0.00529098 0 0)
(0.0173672 5.22253e-05 0 0.00334808 0 0)
(0.0152285 -0.000201809 0 0.00233699 0 0)
(0.0143258 -0.000479416 0 0.00198995 0 0)
(0.0137194 -0.000756627 0 0.00193981 0 0)
(0.0134797 -0.00114236 0 0.00206239 0 0)
(0.0137645 -0.00172057 0 0.00232626 0 0)
(0.0147115 -0.0025664 0 0.00276218 0 0)
(0.0164493 -0.00378768 0 0.00344536 0 0)
(0.0191142 -0.00555559 0 0.00450623 0 0)
(0.0229223 -0.00812137 0 0.00613607 0 0)
(0.0281598 -0.0118409 0 0.00866297 0 0)
(0.0351968 -0.0172001 0 0.0125889 0 0)
(0.0442468 -0.0248592 0 0.0188186 0 0)
(0.0553937 -0.0355746 0 0.0286577 0 0)
(0.067979 -0.0500978 0 0.0443426 0 0)
(0.0810635 -0.0685275 0 0.0682622 0 0)
(0.0923087 -0.0899507 0 0.103891 0 0)
(0.0250321 -0.000454179 0 0.00613883 0 0)
(0.0164731 -0.000230666 0 0.00404253 0 0)
(0.0141155 -0.000422201 0 0.0029045 0 0)
(0.0132432 -0.000658384 0 0.00250069 0 0)
(0.0127935 -0.000880993 0 0.00244548 0 0)
(0.012718 -0.00121286 0 0.0026022 0 0)
(0.0130408 -0.00176552 0 0.0029402 0 0)
(0.0138193 -0.00262412 0 0.0035012 0 0)
(0.01518 -0.00389244 0 0.00437982 0 0)
(0.0172914 -0.00572801 0 0.00573109 0 0)
(0.020375 -0.008361 0 0.00777789 0 0)
(0.0246511 -0.0121045 0 0.0108891 0 0)
(0.0303433 -0.0173595 0 0.0156 0 0)
(0.0374794 -0.0246107 0 0.022816 0 0)
(0.0459311 -0.0343235 0 0.0337074 0 0)
(0.0550548 -0.0468275 0 0.0501515 0 0)
(0.0640651 -0.0618459 0 0.073886 0 0)
(0.0714653 -0.078362 0 0.107466 0 0)
(0.0261405 3.22049e-06 0 0.00616931 0 0)
(0.0174816 -1.40732e-05 0 0.00421776 0 0)
(0.0151172 -0.000273154 0 0.00301632 0 0)
(0.0140847 -0.0006274 0 0.00261066 0 0)
(0.0134943 -0.000985516 0 0.00261572 0 0)
(0.0133724 -0.00142186 0 0.00287258 0 0)
(0.0136956 -0.00204313 0 0.0033556 0 0)
(0.014438 -0.00295729 0 0.00411888 0 0)
(0.0156477 -0.00428643 0 0.00527348 0 0)
(0.0174335 -0.00618942 0 0.00699914 0 0)
(0.019963 -0.00888045 0 0.00954834 0 0)
(0.023383 -0.0126292 0 0.0133225 0 0)
(0.0278132 -0.0177481 0 0.0188685 0 0)
(0.0331822 -0.0245478 0 0.0270492 0 0)
(0.0392906 -0.0332626 0 0.0388837 0 0)
(0.0456038 -0.0439067 0 0.0559011 0 0)
(0.0515881 -0.0560459 0 0.0793458 0 0)
(0.0562893 -0.0686645 0 0.111024 0 0)
(0.0257153 -6.96691e-05 0 0.00660747 0 0)
(0.0170029 -6.87825e-05 0 0.00471034 0 0)
(0.0147478 -0.000311108 0 0.00348484 0 0)
(0.0139661 -0.000511519 0 0.00306404 0 0)
(0.0134835 -0.000703715 0 0.00309586 0 0)
(0.0132468 -0.0010177 0 0.00340886 0 0)
(0.013302 -0.00155267 0 0.00397678 0 0)
(0.013688 -0.00239484 0 0.00487145 0 0)
(0.0144738 -0.00365102 0 0.00622734 0 0)
(0.0157477 -0.00545967 0 0.00824511 0 0)
(0.0176248 -0.00799434 0 0.0111902 0 0)
(0.020177 -0.0114548 0 0.0154666 0 0)
(0.0234312 -0.0160592 0 0.0215955 0 0)
(0.0272487 -0.0219836 0 0.0303592 0 0)
(0.031418 -0.029312 0 0.0426031 0 0)
(0.0354844 -0.0379112 0 0.0595638 0 0)
(0.039139 -0.0472923 0 0.0820778 0 0)
(0.0417411 -0.0565562 0 0.11143 0 0)
(0.0257363 8.70628e-05 0 0.00693633 0 0)
(0.0172126 0.000192554 0 0.00530153 0 0)
(0.0150232 -0.000268776 0 0.00408953 0 0)
(0.0143757 -0.000778106 0 0.00367471 0 0)
(0.0140529 -0.00120332 0 0.00378085 0 0)
(0.0139715 -0.00168544 0 0.00424257 0 0)
(0.0142059 -0.00237176 0 0.00502372 0 0)
(0.0148021 -0.00337089 0 0.00619116 0 0)
(0.0157607 -0.00478521 0 0.00788517 0 0)
(0.0170578 -0.00672889 0 0.010323 0 0)
(0.0187035 -0.00933463 0 0.0137836 0 0)
(0.0207041 -0.0127348 0 0.0186681 0 0)
(0.0230837 -0.0170491 0 0.0254523 0 0)
(0.0257178 -0.0223148 0 0.0348223 0 0)
(0.0284717 -0.0284757 0 0.0474301 0 0)
(0.0309908 -0.0352592 0 0.0642497 0 0)
(0.0331544 -0.042164 0 0.085753 0 0)
(0.0345276 -0.0483951 0 0.112902 0 0)
(0.024337 0.000199028 0 0.00703058 0 0)
(0.0165482 -2.54486e-05 0 0.00532193 0 0)
(0.0145805 -0.000255153 0 0.00404686 0 0)
(0.0138246 -0.000564194 0 0.00359863 0 0)
(0.0133451 -0.000872685 0 0.00371404 0 0)
(0.0130899 -0.00127566 0 0.0042113 0 0)
(0.0130982 -0.00188685 0 0.00504625 0 0)
(0.0134068 -0.00279506 0 0.00629791 0 0)
(0.0140253 -0.00407681 0 0.00812375 0 0)
(0.0149267 -0.00581291 0 0.0107503 0 0)
(0.0160954 -0.00810083 0 0.0144488 0 0)
(0.0174933 -0.0110335 0 0.019596 0 0)
(0.0191102 -0.0146772 0 0.0266106 0 0)
(0.0208285 -0.0190031 0 0.036091 0 0)
(0.0225419 -0.0238808 0 0.0485314 0 0)
(0.0240308 -0.0290183 0 0.0647166 0 0)
(0.0252437 -0.033922 0 0.0848621 0 0)
(0.0259965 -0.037974 0 0.109741 0 0)
(0.0249447 -0.000335792 0 0.00779956 0 0)
(0.0165395 -0.000681664 0 0.00609345 0 0)
(0.0144938 -0.00107346 0 0.00482523 0 0)
(0.0137415 -0.00144654 0 0.00443189 0 0)
(0.0132389 -0.0017347 0 0.00462642 0 0)
(0.0129259 -0.00204528 0 0.00525801 0 0)
(0.0128263 -0.00251882 0 0.00629251 0 0)
(0.012966 -0.00327071 0 0.00779863 0 0)
(0.0133651 -0.00438359 0 0.00992315 0 0)
(0.0140145 -0.00591339 0 0.0128889 0 0)
(0.0148845 -0.00790732 0 0.0169563 0 0)
(0.0159066 -0.010397 0 0.0224756 0 0)
(0.0170076 -0.013383 0 0.0298019 0 0)
(0.0180766 -0.016776 0 0.0394329 0 0)
(0.0189967 -0.0203989 0 0.0517186 0 0)
(0.0197106 -0.0239591 0 0.0672724 0 0)
(0.0201969 -0.0270052 0 0.0861295 0 0)
(0.0205152 -0.0290615 0 0.108915 0 0)
(0.0265182 -0.000525617 0 0.00825688 0 0)
(0.0179807 -0.000815036 0 0.00670929 0 0)
(0.0155381 -0.0010583 0 0.00529937 0 0)
(0.0146109 -0.00129382 0 0.00483163 0 0)
(0.0140693 -0.00147911 0 0.00501322 0 0)
(0.0137412 -0.0017212 0 0.00567304 0 0)
(0.0136055 -0.00214257 0 0.00678355 0 0)
(0.013619 -0.00281593 0 0.00841483 0 0)
(0.0137576 -0.0037759 0 0.0107005 0 0)
(0.0140138 -0.00503407 0 0.0138411 0 0)
(0.0143717 -0.00659731 0 0.0180655 0 0)
(0.0147833 -0.00845475 0 0.0236799 0 0)
(0.0151805 -0.0105673 0 0.0309694 0 0)
(0.0154892 -0.0128164 0 0.0403414 0 0)
(0.0156353 -0.0150199 0 0.0520109 0 0)
(0.0156193 -0.0169116 0 0.0664689 0 0)
(0.0154988 -0.0181096 0 0.0835901 0 0)
(0.0153998 -0.0182606 0 0.103923 0 0)
(0.0257981 0.000343229 0 0.00888407 0 0)
(0.0163049 -0.000223047 0 0.00744108 0 0)
(0.0136784 -0.000564543 0 0.00607267 0 0)
(0.0127857 -0.000774938 0 0.00569889 0 0)
(0.0122489 -0.000922159 0 0.00601641 0 0)
(0.011801 -0.00108714 0 0.00683141 0 0)
(0.011445 -0.00134339 0 0.00809411 0 0)
(0.0112179 -0.00174908 0 0.00987954 0 0)
(0.0111374 -0.00234023 0 0.0123342 0 0)
(0.0111727 -0.00312348 0 0.0156544 0 0)
(0.0112605 -0.00408449 0 0.020036 0 0)
(0.011337 -0.00517002 0 0.0257224 0 0)
(0.0113639 -0.00629916 0 0.0329102 0 0)
(0.0113247 -0.0073182 0 0.0418978 0 0)
(0.0112217 -0.00804942 0 0.0527748 0 0)
(0.0111063 -0.0082641 0 0.0659046 0 0)
(0.0111258 -0.00767671 0 0.0810664 0 0)
(0.01134 -0.00603459 0 0.098702 0 0)
(0.024469 0.000114532 0 0.0097146 0 0)
(0.015975 -0.000392384 0 0.00851462 0 0)
(0.01364 -0.000781681 0 0.00693958 0 0)
(0.0127703 -0.00100012 0 0.00636407 0 0)
(0.0122093 -0.00101796 0 0.00661804 0 0)
(0.0116702 -0.000975907 0 0.00748048 0 0)
(0.0111862 -0.00102349 0 0.00883685 0 0)
(0.0108398 -0.00122942 0 0.0107177 0 0)
(0.0106548 -0.00157246 0 0.0132443 0 0)
(0.0105803 -0.00197433 0 0.0165884 0 0)
(0.0105483 -0.00235289 0 0.0209054 0 0)
(0.0105144 -0.00262222 0 0.0263768 0 0)
(0.0104824 -0.00270876 0 0.0331177 0 0)
(0.0104881 -0.00248982 0 0.0413309 0 0)
(0.0105699 -0.00185317 0 0.0510066 0 0)
(0.0108251 -0.000617911 0 0.062423 0 0)
(0.0113763 0.00137906 0 0.0752907 0 0)
(0.0123557 0.00435197 0 0.089994 0 0)
(0.0266157 0.000297281 0 0.00995416 0 0)
(0.0175071 -0.000213081 0 0.00902337 0 0)
(0.0143532 -0.000700047 0 0.00724793 0 0)
(0.0128734 -0.000787017 0 0.00658716 0 0)
(0.011966 -0.00060138 0 0.00682519 0 0)
(0.011329 -0.000357139 0 0.00769348 0 0)
(0.0108475 -0.000197802 0 0.00906799 0 0)
(0.0104801 -0.000143392 0 0.0109567 0 0)
(0.0102068 -0.000126872 0 0.0134424 0 0)
(0.00999325 -4.98599e-05 0 0.016651 0 0)
(0.00980486 0.000165534 0 0.0206895 0 0)
(0.00964966 0.00060103 0 0.025683 0 0)
(0.00957503 0.00131826 0 0.0316855 0 0)
(0.00966225 0.00243958 0 0.0388273 0 0)
(0.00996963 0.0040369 0 0.0470304 0 0)
(0.0105979 0.00627521 0 0.0564988 0 0)
(0.0116414 0.00920043 0 0.0669197 0 0)
(0.0131752 0.0130218 0 0.078612 0 0)
(0.0248323 0.000360275 0 0.0103568 0 0)
(0.0157837 -0.000361416 0 0.00978195 0 0)
(0.0127597 -0.000936611 0 0.00831861 0 0)
(0.011221 -0.00107237 0 0.00774874 0 0)
(0.0101945 -0.000942042 0 0.0079518 0 0)
(0.00947132 -0.000738133 0 0.00874993 0 0)
(0.00897258 -0.000557385 0 0.0100182 0 0)
(0.00866638 -0.000391304 0 0.0117322 0 0)
(0.00853808 -0.00016394 0 0.0139387 0 0)
(0.00854204 0.000218318 0 0.0167239 0 0)
(0.00862155 0.000823583 0 0.020152 0 0)
(0.00876864 0.00171456 0 0.0242991 0 0)
(0.00902971 0.00293409 0 0.0291737 0 0)
(0.00949408 0.00456881 0 0.034851 0 0)
(0.0102311 0.0066674 0 0.0412272 0 0)
(0.0113559 0.00934066 0 0.0484522 0 0)
(0.0129355 0.0126049 0 0.0562534 0 0)
(0.0150805 0.0165955 0 0.064856 0 0)
(0.025199 -3.42571e-05 0 0.0103296 0 0)
(0.0169118 -3.69662e-05 0 0.00951606 0 0)
(0.0136982 -0.000303956 0 0.00792043 0 0)
(0.0117251 -0.000223392 0 0.00716991 0 0)
(0.0105413 0.00010577 0 0.00718882 0 0)
(0.00981803 0.000469373 0 0.0077911 0 0)
(0.00936948 0.000812048 0 0.00883349 0 0)
(0.00915132 0.00120202 0 0.0102533 0 0)
(0.00917347 0.00174657 0 0.0120441 0 0)
(0.00941166 0.0025346 0 0.0142375 0 0)
(0.00981576 0.00361181 0 0.0168582 0 0)
(0.0103794 0.00500827 0 0.0199444 0 0)
(0.0111413 0.00673788 0 0.0234913 0 0)
(0.012186 0.00884517 0 0.0275408 0 0)
(0.0135673 0.0113495 0 0.0320037 0 0)
(0.0153853 0.0143075 0 0.0369897 0 0)
(0.0176859 0.0177129 0 0.042289 0 0)
(0.0205469 0.02163 0 0.0480514 0 0)
(0.0242208 0.000237927 0 0.0108773 0 0)
(0.0150298 0.00061793 0 0.00929563 0 0)
(0.012118 0.000406299 0 0.00711402 0 0)
(0.0108637 0.000391609 0 0.00626878 0 0)
(0.0102498 0.000593407 0 0.00622941 0 0)
(0.0100085 0.000883271 0 0.00666347 0 0)
(0.00990884 0.00124661 0 0.00742724 0 0)
(0.0098589 0.00174821 0 0.00846408 0 0)
(0.00992428 0.00245804 0 0.00976325 0 0)
(0.0101983 0.00342339 0 0.0113408 0 0)
(0.0107322 0.00466474 0 0.0132045 0 0)
(0.0115632 0.00619895 0 0.0153636 0 0)
(0.0127208 0.00802923 0 0.0177992 0 0)
(0.0142562 0.0101806 0 0.0205304 0 0)
(0.016183 0.012652 0 0.023494 0 0)
(0.0185749 0.0154727 0 0.0267641 0 0)
(0.0214457 0.0186257 0 0.0302146 0 0)
(0.0248512 0.0221493 0 0.0339236 0 0)
(0.0241405 0.000444197 0 0.0100586 0 0)
(0.0150934 0.000401287 0 0.0086177 0 0)
(0.01251 0.000212012 0 0.00658505 0 0)
(0.011355 0.000153837 0 0.0057679 0 0)
(0.0107225 0.000260822 0 0.00568322 0 0)
(0.0104372 0.000504561 0 0.00599004 0 0)
(0.0103677 0.000889482 0 0.00652441 0 0)
(0.0104719 0.00144787 0 0.00722731 0 0)
(0.0107808 0.00220222 0 0.00810503 0 0)
(0.0113183 0.00315833 0 0.00918771 0 0)
(0.0120968 0.00431724 0 0.0104861 0 0)
(0.0131537 0.00569826 0 0.0119981 0 0)
(0.0145464 0.00731981 0 0.0136986 0 0)
(0.0163479 0.00921732 0 0.0155898 0 0)
(0.0185831 0.0113891 0 0.0176173 0 0)
(0.021316 0.0138499 0 0.0198404 0 0)
(0.0245409 0.0165684 0 0.0221702 0 0)
(0.028282 0.0195605 0 0.0246512 0 0)
(0.0259607 0.000483664 0 0.00957064 0 0)
(0.016746 0.000660386 0 0.00824796 0 0)
(0.0142653 0.000536351 0 0.00631608 0 0)
(0.0131431 0.000550564 0 0.00542526 0 0)
(0.0124294 0.000701376 0 0.00519226 0 0)
(0.0120511 0.000943902 0 0.005311 0 0)
(0.0119126 0.00129039 0 0.00561858 0 0)
(0.0119545 0.00178308 0 0.00605352 0 0)
(0.0122029 0.00244948 0 0.00661563 0 0)
(0.0127138 0.00329758 0 0.0073251 0 0)
(0.0135277 0.00432768 0 0.00818874 0 0)
(0.0146837 0.00554901 0 0.00920367 0 0)
(0.0162163 0.00696783 0 0.0103507 0 0)
(0.0181743 0.0086053 0 0.0116277 0 0)
(0.0205703 0.0104583 0 0.0129916 0 0)
(0.0234512 0.0125365 0 0.0144866 0 0)
(0.0268342 0.0148282 0 0.0160508 0 0)
(0.0306915 0.0173283 0 0.0176961 0 0)
(0.0253034 0.000417534 0 0.00930835 0 0)
(0.0164102 0.000415603 0 0.00735885 0 0)
(0.0139826 0.000263944 0 0.00549313 0 0)
(0.012968 0.000276937 0 0.00468376 0 0)
(0.0123243 0.000417675 0 0.00441856 0 0)
(0.011947 0.000661209 0 0.00444044 0 0)
(0.0117936 0.00101785 0 0.00462197 0 0)
(0.0118583 0.00150193 0 0.00490644 0 0)
(0.0121932 0.00211358 0 0.00528106 0 0)
(0.0128531 0.00284816 0 0.00575151 0 0)
(0.0138611 0.00371031 0 0.00631934 0 0)
(0.0152306 0.00472133 0 0.00698347 0 0)
(0.0169818 0.00590223 0 0.00773506 0 0)
(0.0191482 0.00727587 0 0.00857344 0 0)
(0.0217382 0.00884086 0 0.00946959 0 0)
(0.0247829 0.010593 0 0.0104599 0 0)
(0.0283043 0.0125218 0 0.0115004 0 0)
(0.0322475 0.014601 0 0.0125805 0 0)
(0.0261258 0.000308673 0 0.00808923 0 0)
(0.0178579 0.000347025 0 0.00616166 0 0)
(0.0157129 0.000283809 0 0.00452055 0 0)
(0.0145518 0.000404413 0 0.00378486 0 0)
(0.0137529 0.000618757 0 0.00349517 0 0)
(0.0133643 0.000904129 0 0.00344111 0 0)
(0.0133436 0.00126873 0 0.00352192 0 0)
(0.0136529 0.00172552 0 0.00368573 0 0)
(0.0143107 0.00228155 0 0.00391472 0 0)
(0.0153305 0.00294215 0 0.00420857 0 0)
(0.0166945 0.00371544 0 0.00456755 0 0)
(0.018392 0.00461679 0 0.00499014 0 0)
(0.0204437 0.0056576 0 0.00547106 0 0)
(0.0229024 0.00685134 0 0.00600925 0 0)
(0.0257902 0.00819467 0 0.00658372 0 0)
(0.0291643 0.0096869 0 0.00722015 0 0)
(0.0330402 0.011317 0 0.00789003 0 0)
(0.0373685 0.0130718 0 0.00858558 0 0)
(0.025506 0.000218624 0 0.00732644 0 0)
(0.0174256 0.000232082 0 0.00539125 0 0)
(0.015472 0.000189039 0 0.00398245 0 0)
(0.0145514 0.000249248 0 0.00329877 0 0)
(0.0138319 0.000382175 0 0.0030276 0 0)
(0.0133306 0.000578491 0 0.00297196 0 0)
(0.0130794 0.000815307 0 0.00301233 0 0)
(0.0131069 0.00109817 0 0.00309433 0 0)
(0.0134718 0.00145693 0 0.00320715 0 0)
(0.0142164 0.00192126 0 0.00335877 0 0)
(0.0153396 0.00250606 0 0.00355665 0 0)
(0.0168314 0.00321519 0 0.00380189 0 0)
(0.0187006 0.00404357 0 0.00409037 0 0)
(0.0209874 0.00499132 0 0.00442045 0 0)
(0.0236962 0.00604791 0 0.00477474 0 0)
(0.0268859 0.0072154 0 0.00517398 0 0)
(0.030557 0.00848694 0 0.00559796 0 0)
(0.0346762 0.00985902 0 0.00603015 0 0)
(0.0257232 8.44726e-05 0 0.00662119 0 0)
(0.0175799 7.96135e-05 0 0.00435782 0 0)
(0.0153261 8.27071e-05 0 0.00310028 0 0)
(0.0141591 0.000139993 0 0.00257535 0 0)
(0.0133749 0.000238171 0 0.00235824 0 0)
(0.0129946 0.00038605 0 0.00228685 0 0)
(0.0129632 0.000572521 0 0.00227401 0 0)
(0.0131975 0.000797974 0 0.00228653 0 0)
(0.0136948 0.00107907 0 0.00232354 0 0)
(0.0145004 0.00143279 0 0.00239276 0 0)
(0.0156491 0.00186893 0 0.00249659 0 0)
(0.0171633 0.00239488 0 0.00263149 0 0)
(0.0190628 0.003015 0 0.00279236 0 0)
(0.021381 0.00373449 0 0.00297794 0 0)
(0.0241166 0.00455052 0 0.00317849 0 0)
(0.027312 0.00545963 0 0.0034097 0 0)
(0.0309834 0.00645772 0 0.00365853 0 0)
(0.0350745 0.00753462 0 0.00391384 0 0)
(0.0249356 -0.000261354 0 0.00593187 0 0)
(0.0167266 -0.00029029 0 0.00386436 0 0)
(0.014852 -0.000173549 0 0.00278869 0 0)
(0.0140385 -1.26168e-05 0 0.00230909 0 0)
(0.0134776 0.000109313 0 0.00209284 0 0)
(0.0132133 0.000228626 0 0.00200119 0 0)
(0.0132628 0.000369638 0 0.00195388 0 0)
(0.013594 0.00054394 0 0.00191958 0 0)
(0.0142071 0.000765945 0 0.00189831 0 0)
(0.0151259 0.00104863 0 0.00189851 0 0)
(0.0163784 0.00139907 0 0.00192382 0 0)
(0.0180058 0.00182233 0 0.00197207 0 0)
(0.0200584 0.00231992 0 0.00204019 0 0)
(0.0225855 0.00289232 0 0.00212679 0 0)
(0.0255844 0.00353196 0 0.00222381 0 0)
(0.0290836 0.00423244 0 0.00234479 0 0)
(0.0330739 0.00498621 0 0.0024791 0 0)
(0.037491 0.00579278 0 0.00261414 0 0)
(0.0270062 -7.23905e-05 0 0.00506061 0 0)
(0.018602 -6.41924e-05 0 0.00297135 0 0)
(0.0161816 -1.09403e-05 0 0.00211702 0 0)
(0.0149165 8.08737e-05 0 0.00176249 0 0)
(0.0140103 0.000160076 0 0.00159181 0 0)
(0.0134732 0.000212797 0 0.00149486 0 0)
(0.0133461 0.000269609 0 0.00142245 0 0)
(0.0135877 0.000366242 0 0.00136198 0 0)
(0.0141493 0.000515169 0 0.00131599 0 0)
(0.0150076 0.000709431 0 0.00128773 0 0)
(0.0161689 0.000940926 0 0.00127664 0 0)
(0.0176755 0.00121089 0 0.00128028 0 0)
(0.0195874 0.0015254 0 0.00129782 0 0)
(0.0219588 0.00189101 0 0.00132974 0 0)
(0.024787 0.00230859 0 0.00137241 0 0)
(0.0281013 0.00277745 0 0.00143451 0 0)
(0.0318968 0.00329553 0 0.00150916 0 0)
(0.0360911 0.00386268 0 0.00158717 0 0)
(0.0255532 -4.65487e-05 0 0.00399133 0 0)
(0.0185611 -0.000339472 0 0.00226946 0 0)
(0.0166379 -0.000365992 0 0.00168141 0 0)
(0.015432 -0.000309873 0 0.00141812 0 0)
(0.0146472 -0.000292293 0 0.00126944 0 0)
(0.01433 -0.00031334 0 0.00116701 0 0)
(0.014331 -0.000331235 0 0.00108421 0 0)
(0.0145286 -0.000314076 0 0.00101495 0 0)
(0.0149532 -0.000253082 0 0.000958795 0 0)
(0.0157153 -0.000153654 0 0.000914831 0 0)
(0.0169068 -2.01647e-05 0 0.000881275 0 0)
(0.0185793 0.000151223 0 0.0008564 0 0)
(0.0207552 0.000368485 0 0.000839693 0 0)
(0.0234616 0.000636909 0 0.000830516 0 0)
(0.0266825 0.000956079 0 0.000826971 0 0)
(0.0304845 0.00132058 0 0.000834659 0 0)
(0.034896 0.00173008 0 0.000848013 0 0)
(0.0398826 0.00217227 0 0.000861667 0 0)
(0.0247211 1.01118e-05 0 0.003925 0 0)
(0.0168624 6.43616e-05 0 0.0022063 0 0)
(0.0150708 2.23058e-05 0 0.00164702 0 0)
(0.0139931 4.3456e-05 0 0.00135138 0 0)
(0.0130235 3.95594e-05 0 0.0011603 0 0)
(0.0124688 3.23984e-05 0 0.00102303 0 0)
(0.0125003 5.14806e-05 0 0.000918222 0 0)
(0.0130803 9.17415e-05 0 0.000835792 0 0)
(0.0141421 0.000135869 0 0.000769779 0 0)
(0.0156682 0.000177723 0 0.00071596 0 0)
(0.0176987 0.000225793 0 0.000671243 0 0)
(0.020341 0.000293296 0 0.000633588 0 0)
(0.0237341 0.000389654 0 0.000601968 0 0)
(0.0280294 0.000516746 0 0.0005745 0 0)
(0.0333183 0.00067341 0 0.000549408 0 0)
(0.0397496 0.000853764 0 0.000532282 0 0)
(0.0473197 0.00105474 0 0.000515979 0 0)
(0.0560867 0.00127414 0 0.000492424 0 0)
(0.0128838 -0.00804372 5.71019e-23 0.012631 -6.77631e-23 3.54548e-38)
(0.0714829 -0.0110441 -1.20488e-22 0.0152924 8.62266e-24 3.49534e-38)
(0.169484 -0.0131051 0 0.0269523 0 0)
(0.289323 -0.013156 0 0.0472548 0 0)
(0.392381 -0.0174607 0 0.0704283 0 0)
(0.505277 -0.0382778 3.91619e-23 0.09483 3.94106e-23 3.29213e-38)
(0.661385 -0.079833 0 0.116424 0 0)
(0.891053 -0.136819 0 0.127524 0 0)
(1.2118 -0.194994 0 0.126737 0 0)
(1.62075 -0.243635 0 0.118109 0 0)
(2.1052 -0.277066 8.38087e-23 0.104767 7.38282e-23 3.04819e-38)
(2.63921 -0.289054 0 0.0877883 0 0)
(3.1873 -0.27825 0 0.0720166 0 0)
(3.71747 -0.252396 0 0.0598356 0 0)
(4.20806 -0.217854 0 0.0508544 0 0)
(4.64299 -0.177807 1.54444e-22 0.0445145 1.21553e-22 2.81678e-38)
(5.01266 -0.133964 0 0.0399841 0 0)
(5.31106 -0.0879035 0 0.0381575 0 0)
(5.53396 -0.0437482 0 0.0402087 0 0)
(5.68157 -0.00568654 0 0.0453615 0 0)
(5.76487 0.0207377 0 0.055166 0 0)
(5.81111 0.033952 0 0.066384 0 0)
(5.82832 0.0435964 0 0.0775844 0 0)
(5.81889 0.0499928 -8.60261e-22 0.0903941 1.63083e-22 2.47252e-38)
(5.80232 0.0444003 1.11206e-21 0.102604 -1.65596e-22 2.43163e-38)
(5.79092 0.0303137 -1.38962e-21 0.116259 1.65617e-22 2.39119e-38)
(5.8216 0.00707727 -1.68938e-21 0.140533 1.55747e-22 2.35121e-38)
(5.90502 -0.0376378 0 0.151328 0 0)
(6.06775 -0.0826153 0 0.153719 0 0)
(6.32348 -0.14188 2.64026e-21 0.151845 -1.15063e-22 2.23391e-38)
(6.66726 -0.203657 2.98857e-21 0.147552 -1.54477e-22 2.19569e-38)
(7.11975 -0.264367 0 0.140223 0 0)
(7.66385 -0.31338 0 0.139547 0 0)
(8.28413 -0.3457 4.07213e-21 0.136724 -1.10797e-22 2.08374e-38)
(8.95562 -0.369677 0 0.14309 0 0)
(9.65252 -0.368446 0 0.141064 0 0)
(10.3655 -0.387366 -5.28466e-21 0.150482 1.54249e-22 1.97592e-38)
(11.1145 -0.41153 0 0.155214 0 0)
(11.8868 -0.430782 -6.15218e-21 0.162606 1.68529e-22 1.90636e-38)
(12.6619 -0.434147 -1.3173e-20 0.153505 3.60164e-22 7.48904e-38)
(13.4418 -0.431457 0 0.150325 0 0)
(14.2342 -0.435065 0 0.139291 0 0)
(15.0613 -0.460181 0 0.120736 0 0)
(15.9176 -0.469191 0 0.116436 0 0)
(16.749 -0.449728 0 0.115227 0 0)
(17.584 -0.43856 -1.79398e-20 0.125131 3.91384e-22 6.7085e-38)
(18.3342 -0.43854 -1.85562e-20 0.130193 3.75406e-22 6.58467e-38)
(19.069 -0.43133 -1.90826e-20 0.129847 3.50356e-22 6.46264e-38)
(19.7065 -0.40078 0 0.131881 0 0)
(20.2073 -0.346698 2.00208e-20 0.133239 -4.04805e-22 6.22375e-38)
(20.6597 -0.344635 0 0.129206 0 0)
(21.1427 -0.33567 -2.06927e-20 0.112689 3.66304e-22 5.99182e-38)
(21.5714 -0.332276 -2.096e-20 0.111441 3.70306e-22 5.87845e-38)
(21.9742 -0.280805 0 0.102641 0 0)
(22.2111 -0.273859 0 0.114713 0 0)
(22.4481 -0.237969 0 0.12249 0 0)
(22.6061 -0.243352 -2.1969e-20 0.135632 2.24793e-22 5.4417e-38)
(22.8036 -0.254121 0 0.124858 0 0)
(23.0545 -0.269882 0 0.130402 0 0)
(23.3365 -0.281193 0 0.125276 0 0)
(23.6453 -0.242605 0 0.125022 0 0)
(23.8909 -0.23819 0 0.133492 0 0)
(24.1839 -0.266144 0 0.130488 0 0)
(24.5611 -0.298444 0 0.126872 0 0)
(25.0934 -0.340196 0 0.125627 0 0)
(25.6474 -0.340043 2.53275e-20 0.122111 -4.27749e-22 4.55303e-38)
(26.196 -0.335296 0 0.114062 0 0)
(26.6978 -0.318591 0 0.103239 0 0)
(27.1443 -0.3107 -2.65722e-20 0.0974196 4.4094e-22 4.28422e-38)
(27.4485 -0.280094 -2.68838e-20 0.0868421 3.99616e-22 4.19754e-38)
(27.6517 -0.260394 0 0.0775138 0 0)
(27.7743 -0.181546 2.72176e-20 0.0730047 -3.12243e-22 4.02841e-38)
(27.664 -0.123408 -2.70743e-20 0.0940246 2.30253e-22 3.9459e-38)
(27.537 -0.109518 0 0.10134 0 0)
(27.4142 -0.129088 2.63844e-20 0.106455 -1.38296e-22 3.7849e-38)
(27.3134 -0.161876 0 0.109097 0 0)
(27.3038 -0.185063 0 0.10484 0 0)
(27.2162 -0.16233 -2.54625e-20 0.111929 1.83896e-22 3.55337e-38)
(27.1074 -0.162715 0 0.106683 0 0)
(26.9956 -0.189618 2.49394e-20 0.0966359 -1.58775e-22 3.40552e-38)
(27.0685 -0.1804 0 0.0846261 0 0)
(27.0623 -0.207778 -2.47391e-20 0.0808603 1.97962e-22 3.26275e-38)
(27.2454 -0.180211 -2.46407e-20 0.0708467 2.11105e-22 3.19321e-38)
(27.1606 -0.110924 -2.45857e-20 0.08279 2.20865e-22 3.12486e-38)
(27.2811 -0.139085 -4.91552e-20 0.0785008 4.81883e-22 1.22308e-37)
(27.3895 -0.130917 4.91137e-20 0.0745754 -4.68226e-22 1.19669e-37)
(27.4891 -0.0985539 0 0.0719856 0 0)
(27.4322 -0.0804185 0 0.0762987 0 0)
(27.3955 -0.0892236 0 0.068408 0 0)
(27.4718 -0.103073 4.81621e-20 0.0609769 -2.98301e-22 1.09571e-37)
(27.5757 -0.102896 4.80511e-20 0.0598264 -3.24016e-22 1.07156e-37)
(27.623 -0.0885514 -4.80193e-20 0.0597465 4.56326e-22 1.04784e-37)
(27.7578 -0.0784197 0 0.0651654 0 0)
(27.6189 -0.052675 4.77805e-20 0.0796878 -3.6111e-22 1.00165e-37)
(27.6565 -0.121207 4.71821e-20 0.0860894 -3.36321e-22 9.79166e-38)
(27.9697 -0.144445 4.66954e-20 0.0736149 -3.6138e-22 9.57093e-38)
(28.353 -0.12563 0 0.0636408 0 0)
(28.6116 -0.0688285 0 0.0574596 0 0)
(28.6602 -0.0241828 0 0.0543073 0 0)
(28.4412 0.0261459 4.48676e-20 0.0559558 -2.05155e-22 8.72757e-38)
(28.1427 0.0294057 0 0.0464537 0 0)
(27.7677 0.0944312 0 0.0486516 0 0)
(27.0885 0.0932122 -4.12614e-20 0.0764252 1.43792e-22 8.13425e-38)
(26.5086 0.0821999 0 0.072926 0 0)
(26.0023 0.0504313 0 0.0704313 0 0)
(25.6162 0.0648455 -3.7218e-20 0.0724573 1.28352e-22 7.57305e-38)
(25.1715 -0.00912514 0 0.088683 0 0)
(25.0888 -0.0760347 0 0.0806374 0 0)
(25.2231 -0.104522 3.51412e-20 0.0749292 -3.15465e-22 7.04291e-38)
(25.5076 -0.114983 3.54219e-20 0.0715269 -3.74163e-22 6.87295e-38)
(25.8535 -0.119679 0 0.0649894 0 0)
(26.2259 -0.112071 -3.64169e-20 0.0568693 4.22881e-22 6.54272e-38)
(26.5585 -0.0933822 0 0.0495823 0 0)
(26.7944 -0.0637732 3.70337e-20 0.0448677 -3.26569e-22 6.22483e-38)
(26.8735 -0.0327508 0 0.0421688 0 0)
(26.8163 -0.00149363 3.65165e-20 0.0379861 -2.72817e-22 5.91872e-38)
(26.6182 0.032255 3.58482e-20 0.0346167 -2.31152e-22 5.76999e-38)
(26.2728 0.0623846 0 0.0327232 0 0)
(25.796 0.0852263 0 0.0315823 0 0)
(25.2194 0.0977305 0 0.0300976 0 0)
(24.5796 0.102632 0 0.031851 0 0)
(23.9945 0.091678 0 0.0295225 0 0)
(23.4452 0.0947449 0 0.0363548 0 0)
(22.9813 0.0476737 0 0.0539233 0 0)
(22.8291 5.06984e-06 2.69939e-20 0.0474046 -2.13286e-22 4.67859e-38)
(22.802 -0.0209861 -2.64728e-20 0.0420642 2.18518e-22 4.55401e-38)
(22.9125 -0.0389129 0 0.0389716 0 0)
(23.0842 -0.0539238 0 0.0362552 0 0)
(23.327 -0.0558753 0 0.0312865 0 0)
(23.5145 -0.03633 0 0.0288089 0 0)
(23.5797 -0.0129362 -5.27364e-20 0.0284722 6.12685e-22 1.58728e-37)
(23.4481 0.0054794 0 0.0282127 0 0)
(23.2782 0.0225343 5.23465e-20 0.0287579 -2.98787e-22 1.50004e-37)
(23.1747 -0.026946 -5.11417e-20 0.0568523 1.89156e-22 1.4577e-37)
(23.8569 -0.175374 0 0.078262 0 0)
(24.8724 -0.213006 0 0.0643527 0 0)
(26.0235 -0.199023 0 0.0540261 0 0)
(27.1704 -0.209549 5.43551e-20 0.05967 -7.71257e-22 1.29696e-37)
(28.4101 -0.184371 5.64118e-20 0.0445115 -6.91709e-22 1.25892e-37)
(29.2335 -0.107946 0 0.0338003 0 0)
(29.7532 -0.0465266 5.87547e-20 0.0300131 -4.39677e-22 1.18526e-37)
(29.8588 0.00785784 5.86102e-20 0.0282022 -3.28585e-22 1.1496e-37)
(29.7155 0.0465879 -5.77729e-20 0.0274391 2.91097e-22 1.11468e-37)
(29.3065 0.0766978 0 0.0311303 0 0)
(28.7836 0.0802514 0 0.0366491 0 0)
(28.2258 0.0877615 -5.07707e-20 0.0354742 1.03935e-22 1.01425e-37)
(27.5029 0.117277 0 0.0316887 0 0)
(26.5755 0.151417 0 0.0297855 0 0)
(25.4284 0.18117 0 0.0297042 0 0)
(24.1158 0.20117 0 0.0300998 0 0)
(22.6803 0.212562 3.16455e-20 0.0291696 7.81167e-23 8.60872e-38)
(21.1864 0.219443 2.77705e-20 0.0276218 2.63057e-23 8.32249e-38)
(19.6744 0.218747 0 0.0276068 0 0)
(18.2083 0.208419 2.14425e-20 0.0275156 -9.4168e-23 7.76968e-38)
(16.883 0.180139 0 0.0327126 0 0)
(15.9292 0.111006 0 0.0396774 0 0)
(15.5014 0.0425152 1.69914e-20 0.039057 -2.87289e-22 6.9879e-38)
(15.3426 0.0213682 0 0.0325496 0 0)