/*--------------------------------*- C++ -*----------------------------------*\
  =========                 |
  \\      /  F ield         | OpenFOAM: The Open Source CFD Toolbox
   \\    /   O peration     | Website:  https://openfoam.org
    \\  /    A nd           | Version:  6
     \\/     M anipulation  |
\*---------------------------------------------------------------------------*/
FoamFile
{
    version     2.0;
    format      ascii;
    class       volScalarField;
    location    "0.4";
    object      k;
}
// * * * * * * * * * * * * * * * * * * * * * * * * * * * * * * * * * * * * * //

dimensions      [0 2 -2 0 0 0 0];

internalField   nonuniform List<scalar> 
12225
(
0.000874639
0.00292851
0.00289129
0.0015322
0.00047715
0.000151686
6.3945e-05
4.60886e-05
4.6552e-05
6.12532e-05
0.000119249
0.000186632
0.000227689
0.00024526
0.00024804
0.000243358
0.000215408
0.000134752
4.99296e-05
0.000154749
0.000164416
0.000137917
7.50567e-05
4.30338e-05
3.11171e-05
2.79846e-05
2.78535e-05
2.93815e-05
3.59867e-05
5.12846e-05
6.84953e-05
9.04641e-05
0.00011544
0.000135367
0.000142214
0.000138966
2.08893e-05
1.95092e-05
1.83844e-05
1.78038e-05
1.73607e-05
1.74697e-05
1.80641e-05
1.85031e-05
1.88016e-05
1.92765e-05
2.03559e-05
2.14924e-05
2.28647e-05
2.59594e-05
3.17579e-05
3.54605e-05
3.83677e-05
4.7268e-05
2.01884e-05
2.34282e-05
2.80237e-05
2.78784e-05
2.5155e-05
2.24871e-05
2.07853e-05
1.7943e-05
1.61694e-05
1.6725e-05
1.79248e-05
1.83906e-05
1.84416e-05
1.82373e-05
1.68582e-05
1.44835e-05
1.35817e-05
1.3792e-05
2.26551e-05
3.28121e-05
3.45438e-05
3.04925e-05
2.7259e-05
2.6878e-05
2.67878e-05
2.63914e-05
2.4752e-05
2.26687e-05
2.14781e-05
2.09109e-05
2.0556e-05
2.00631e-05
1.94747e-05
1.90765e-05
1.90609e-05
1.91397e-05
2.25101e-05
2.50311e-05
2.45965e-05
2.31657e-05
2.37705e-05
2.67706e-05
2.74194e-05
2.64587e-05
2.40984e-05
2.3345e-05
2.32329e-05
2.30228e-05
2.27473e-05
2.25721e-05
2.25975e-05
2.30359e-05
2.50639e-05
3.32889e-05
2.85885e-05
2.53326e-05
2.27812e-05
2.79289e-05
2.99508e-05
2.82524e-05
2.52009e-05
2.32206e-05
2.22179e-05
2.20122e-05
2.2337e-05
2.31722e-05
2.31409e-05
2.2982e-05
2.29997e-05
2.32098e-05
2.3941e-05
2.59668e-05
2.07386e-05
2.12668e-05
2.55361e-05
5.01989e-05
6.12536e-05
4.55454e-05
2.92985e-05
2.36645e-05
2.18e-05
2.12352e-05
2.11278e-05
2.11542e-05
2.13825e-05
2.23498e-05
2.49466e-05
2.75221e-05
3.07975e-05
3.63351e-05
2.02564e-05
2.35769e-05
4.08814e-05
4.8419e-05
3.95008e-05
2.73252e-05
2.29511e-05
2.16127e-05
2.12596e-05
2.11889e-05
2.11903e-05
2.12565e-05
2.15506e-05
2.2604e-05
2.68083e-05
3.19208e-05
3.37787e-05
3.46688e-05
2.00222e-05
2.17896e-05
3.42542e-05
4.40706e-05
4.11074e-05
3.21889e-05
2.82569e-05
2.77612e-05
2.85422e-05
3.00885e-05
3.11707e-05
3.18604e-05
3.18779e-05
3.2138e-05
3.4108e-05
3.56792e-05
3.56832e-05
3.49738e-05
2.00878e-05
2.08381e-05
2.64114e-05
3.49727e-05
3.59218e-05
3.28553e-05
2.73572e-05
2.59241e-05
2.63503e-05
3.0568e-05
4.25905e-05
4.98524e-05
5.08708e-05
4.78077e-05
3.82548e-05
3.23002e-05
2.8857e-05
2.64543e-05
2.02853e-05
2.04988e-05
2.20175e-05
2.48899e-05
2.53902e-05
2.50976e-05
2.51388e-05
2.70022e-05
3.84576e-05
5.63948e-05
6.29846e-05
6.29224e-05
5.75631e-05
4.28098e-05
3.27151e-05
2.75673e-05
2.54698e-05
2.46618e-05
2.25784e-05
2.18191e-05
2.36205e-05
2.55161e-05
2.42658e-05
2.30545e-05
2.29972e-05
2.37198e-05
2.62687e-05
2.81689e-05
2.85969e-05
2.84554e-05
2.72885e-05
2.44983e-05
2.2966e-05
2.25062e-05
2.25195e-05
2.31798e-05
2.1255e-05
2.09387e-05
2.15913e-05
2.36043e-05
2.34174e-05
2.25929e-05
2.25949e-05
2.26383e-05
2.21484e-05
2.16764e-05
2.16774e-05
2.22596e-05
2.40543e-05
2.4905e-05
2.49095e-05
2.4194e-05
2.33173e-05
2.30057e-05
2.08219e-05
2.15699e-05
2.25004e-05
2.25852e-05
2.2314e-05
2.1988e-05
2.19964e-05
2.19682e-05
2.15575e-05
2.1246e-05
2.12147e-05
2.13703e-05
2.18601e-05
2.2032e-05
2.20496e-05
2.20481e-05
2.20797e-05
2.21813e-05
2.0162e-05
2.03596e-05
2.11662e-05
2.35686e-05
2.32555e-05
2.32031e-05
2.39676e-05
2.52937e-05
2.52132e-05
2.4154e-05
2.32704e-05
2.29053e-05
2.27824e-05
2.27605e-05
2.27778e-05
2.29035e-05
2.34453e-05
2.50471e-05
2.11321e-05
2.13563e-05
2.11389e-05
2.14806e-05
2.14393e-05
2.13565e-05
2.13511e-05
2.12707e-05
2.10116e-05
2.09157e-05
2.09493e-05
2.11485e-05
2.15432e-05
2.1797e-05
2.19216e-05
2.20059e-05
2.21341e-05
2.24208e-05
2.00493e-05
2.02496e-05
2.02676e-05
2.02678e-05
2.04305e-05
2.04941e-05
2.03832e-05
2.03981e-05
2.0669e-05
2.19603e-05
2.36528e-05
2.43496e-05
2.44651e-05
2.44074e-05
2.39591e-05
2.30099e-05
2.24622e-05
2.23141e-05
2.0533e-05
2.04039e-05
2.05586e-05
2.11667e-05
2.15261e-05
2.14498e-05
2.12487e-05
2.12302e-05
2.13795e-05
2.16675e-05
2.16988e-05
2.16271e-05
2.15853e-05
2.16055e-05
2.17326e-05
2.18482e-05
2.18914e-05
2.18997e-05
2.19119e-05
2.24093e-05
2.20273e-05
2.19475e-05
2.21014e-05
2.23025e-05
2.25917e-05
2.32518e-05
2.39281e-05
2.4262e-05
2.42341e-05
2.36473e-05
2.26304e-05
2.19795e-05
2.16e-05
2.13663e-05
2.12503e-05
2.11714e-05
2.11834e-05
2.11092e-05
2.06772e-05
2.05482e-05
2.07646e-05
2.1937e-05
2.3375e-05
2.42418e-05
2.48485e-05
2.50224e-05
2.40747e-05
2.29214e-05
2.26591e-05
2.27357e-05
2.34781e-05
2.51065e-05
2.61302e-05
2.64536e-05
2.02961e-05
2.09974e-05
2.37342e-05
2.37327e-05
2.31005e-05
2.30458e-05
2.31742e-05
2.31493e-05
2.29034e-05
2.20054e-05
2.12296e-05
2.08687e-05
2.07605e-05
2.0761e-05
2.08658e-05
2.13336e-05
2.30246e-05
2.83558e-05
2.04707e-05
2.043e-05
2.03667e-05
2.04247e-05
2.08527e-05
2.17173e-05
2.21594e-05
2.22537e-05
2.2197e-05
2.17813e-05
2.12142e-05
2.09582e-05
2.08963e-05
2.09069e-05
2.10235e-05
2.14931e-05
2.31313e-05
2.75354e-05
2.0027e-05
2.03491e-05
2.14719e-05
2.19411e-05
2.18871e-05
2.1538e-05
2.14406e-05
2.15163e-05
2.18725e-05
2.21502e-05
2.22684e-05
2.22926e-05
2.22604e-05
2.20193e-05
2.15574e-05
2.13059e-05
2.12317e-05
2.12474e-05
2.04455e-05
2.06761e-05
2.06743e-05
2.06651e-05
2.06718e-05
2.07387e-05
2.10616e-05
2.22425e-05
2.34603e-05
2.40047e-05
2.41058e-05
2.40773e-05
2.38043e-05
2.28402e-05
2.19101e-05
2.13072e-05
2.09297e-05
2.07421e-05
2.19497e-05
2.19913e-05
2.07813e-05
2.04866e-05
2.06383e-05
2.10254e-05
2.16644e-05
2.32559e-05
2.50707e-05
2.5605e-05
2.5234e-05
2.45806e-05
2.42895e-05
2.40485e-05
2.33996e-05
2.2056e-05
2.11251e-05
2.0687e-05
2.02898e-05
2.03358e-05
2.02016e-05
2.01847e-05
2.03031e-05
2.03057e-05
2.00218e-05
1.99683e-05
2.00789e-05
2.01246e-05
2.00186e-05
1.9299e-05
1.71249e-05
1.58045e-05
1.49167e-05
1.29762e-05
1.10332e-05
1.02248e-05
2.00075e-05
1.88004e-05
1.85606e-05
1.78338e-05
1.64775e-05
1.541e-05
1.48967e-05
1.47708e-05
1.47707e-05
1.48159e-05
1.4989e-05
1.55628e-05
1.61795e-05
1.65359e-05
1.66762e-05
1.66878e-05
1.6573e-05
1.58656e-05
2.01047e-05
2.02857e-05
2.12175e-05
2.20345e-05
2.20999e-05
2.19759e-05
2.18841e-05
2.19135e-05
2.21087e-05
2.28065e-05
2.53364e-05
2.93647e-05
3.18897e-05
3.31e-05
3.36187e-05
3.38143e-05
3.40929e-05
3.42714e-05
5.56307e-05
3.30255e-05
3.23346e-05
4.02616e-05
4.19389e-05
3.99777e-05
3.5712e-05
3.46307e-05
3.51191e-05
3.92659e-05
5.45851e-05
6.87255e-05
7.57069e-05
7.79615e-05
7.80806e-05
7.67896e-05
7.47837e-05
7.44128e-05
0.08889
0.100605
0.101254
0.103119
0.110482
0.122698
0.135842
0.148544
0.157222
0.156809
0.153175
0.148578
0.145395
0.141985
0.139179
0.136597
0.134143
0.131431
0.128818
0.126594
0.123572
0.122127
0.121852
0.121677
0.120936
0.118665
0.113484
0.106715
0.0997747
0.0944466
0.0910467
0.0897077
0.0903184
0.095647
0.116503
0.158623
0.165547
0.151585
0.156641
0.20716
0.247482
0.255596
0.231325
0.163357
0.139785
0.13327
0.131812
0.130623
0.128956
0.126757
0.124775
0.123291
0.125184
0.126671
0.128001
0.127582
0.126809
0.125756
0.124751
0.12423
0.124053
0.124036
0.12413
0.124541
0.126237
0.132415
0.14938
0.192437
0.237392
0.261156
0.263807
0.257718
0.257548
0.299169
0.545561
0.687265
0.700186
0.714883
0.753123
0.787342
0.793266
0.751468
0.665146
0.628945
0.551506
0.401746
0.299779
0.254292
0.239023
0.251244
0.483437
0.582907
0.38657
0.226401
0.187873
0.166113
0.147622
0.139334
0.130003
0.12495
0.120463
0.116044
0.114118
0.113415
0.113424
0.113241
0.113213
0.113111
0.113073
0.113045
0.113047
0.113053
0.113069
0.11307
0.113024
0.112964
0.112886
0.112813
0.112707
0.112544
0.112366
0.11216
0.111882
0.11156
0.111176
0.110758
0.110308
0.109804
0.109251
0.108689
0.108129
0.107501
0.106879
0.106321
0.105785
0.105324
0.104943
0.10456
0.104107
0.103572
0.10253
0.103336
0.10404
0.103561
0.101587
0.0994784
0.0980417
0.0977749
0.0982261
0.0987943
0.0993557
0.100353
0.102228
0.104542
0.106013
0.106225
0.105615
0.104862
0.105945
0.107443
0.105535
0.0998455
0.100463
0.111962
0.118822
0.111073
0.0681171
0.0263523
0.0205507
0.0260331
0.0313646
0.0331633
0.0337149
0.0334347
0.0334339
0.0338225
0.0340414
0.0338603
0.0334004
0.0299407
0.0892689
0.0430587
0.072053
0.107401
0.136771
0.147556
0.152178
0.159368
0.160542
0.159276
0.156496
0.153068
0.149311
0.146425
0.14408
0.142028
0.13989
0.137847
0.135618
0.132979
0.130428
0.127522
0.124974
0.122554
0.120559
0.11933
0.1178
0.115811
0.114235
0.112134
0.107252
0.0993281
0.0921823
0.0901035
0.0930266
0.104984
0.130386
0.153833
0.164161
0.191941
0.210696
0.210817
0.198119
0.157118
0.142598
0.138021
0.132645
0.127569
0.12327
0.118632
0.116042
0.115866
0.116265
0.117139
0.11865
0.120665
0.124796
0.127478
0.129024
0.129612
0.129253
0.128086
0.126095
0.12305
0.120359
0.119915
0.120721
0.12554
0.128103
0.126965
0.12731
0.133997
0.154777
0.229703
0.303713
0.318112
0.348472
0.413928
0.432696
0.433196
0.437815
0.429506
0.373077
0.359001
0.345785
0.29458
0.268054
0.275693
0.318381
0.392816
0.411405
0.341571
0.174663
0.136913
0.126085
0.120976
0.118613
0.116717
0.114677
0.113306
0.111331
0.109592
0.108051
0.106281
0.104875
0.103302
0.10246
0.102024
0.101903
0.10212
0.10289
0.103338
0.104334
0.105325
0.106096
0.107008
0.107841
0.108843
0.109775
0.110628
0.111373
0.112103
0.112664
0.113088
0.113353
0.113482
0.113514
0.113411
0.113203
0.112872
0.11249
0.11202
0.111501
0.110933
0.110326
0.109791
0.109449
0.109245
0.108885
0.108172
0.106669
0.103925
0.100889
0.0966071
0.0915478
0.0863707
0.081147
0.0767977
0.0736492
0.0700944
0.0657779
0.0632843
0.0612604
0.0596337
0.057886
0.0536004
0.0462156
0.0420951
0.0426256
0.0497858
0.0718489
0.0920299
0.106703
0.112157
0.111158
0.103447
0.0898108
0.0808545
0.0778137
0.0726782
0.0580098
0.0442902
0.037243
0.0344166
0.0328584
0.0312373
0.0290435
0.02788
0.0265513
0.0266826
0.0824709
0.0521647
0.118769
0.159809
0.157761
0.149915
0.137521
0.12646
0.12575
0.127216
0.130179
0.132541
0.134641
0.136489
0.137521
0.137874
0.137653
0.136877
0.135073
0.132098
0.128945
0.12532
0.121664
0.118223
0.115405
0.113634
0.112606
0.112105
0.111882
0.111457
0.110327
0.10761
0.0993931
0.0928723
0.0863487
0.0853338
0.0875843
0.0988549
0.122848
0.142646
0.16101
0.172045
0.171039
0.164252
0.154966
0.140054
0.124225
0.114065
0.109959
0.110967
0.113273
0.117153
0.125007
0.134047
0.146832
0.161745
0.180222
0.192269
0.201678
0.204002
0.201719
0.195086
0.183352
0.174106
0.163672
0.149662
0.139831
0.136298
0.134244
0.13381
0.134482
0.139143
0.160753
0.182649
0.212193
0.270433
0.398198
0.438836
0.408044
0.271326
0.222653
0.222483
0.231961
0.250178
0.255017
0.249075
0.277969
0.345786
0.366979
0.353354
0.257947
0.151648
0.119264
0.11127
0.10795
0.103685
0.0978712
0.093529
0.0872946
0.080246
0.07273
0.0650956
0.0589549
0.0552451
0.0522032
0.0497576
0.0485639
0.0479191
0.0476554
0.0476408
0.0484903
0.0492143
0.0505006
0.0525541
0.0545576
0.0568258
0.0594151
0.0625545
0.0660787
0.0698767
0.0737463
0.0778691
0.0821217
0.0862579
0.0901319
0.0935229
0.0964719
0.0988198
0.101025
0.103001
0.104644
0.105928
0.106882
0.107465
0.107496
0.10693
0.10585
0.104697
0.103499
0.102376
0.101111
0.0995033
0.0972621
0.094045
0.0894695
0.0840824
0.0776389
0.069775
0.0620751
0.0558653
0.0502768
0.0447337
0.0383996
0.0297876
0.0182773
0.00839286
0.00367868
0.00361328
0.00980236
0.0232199
0.0372094
0.0552674
0.066055
0.0661594
0.0535969
0.0389319
0.042504
0.0574418
0.0676541
0.0697186
0.0689483
0.0630304
0.0458761
0.0336811
0.0267782
0.0230159
0.0210924
0.0204587
0.0193945
0.0194947
0.0602139
0.134059
0.181982
0.164772
0.128128
0.10709
0.108078
0.111156
0.118371
0.126834
0.135668
0.14316
0.150629
0.156588
0.161541
0.16592
0.168018
0.168035
0.167268
0.164979
0.159763
0.152252
0.143566
0.134419
0.126991
0.12142
0.11745
0.114754
0.113041
0.112184
0.111378
0.10951
0.104726
0.0974284
0.0890855
0.0827129
0.0763806
0.0763436
0.0789023
0.0850819
0.0959569
0.105124
0.10669
0.104119
0.0977779
0.0940737
0.0956576
0.100362
0.107673
0.118451
0.134091
0.157012
0.186791
0.217726
0.249929
0.2718
0.288853
0.300436
0.308166
0.310685
0.308929
0.296768
0.272148
0.251869
0.238919
0.220661
0.195697
0.172272
0.157625
0.152438
0.152444
0.156476
0.172719
0.216035
0.373872
0.4414
0.333646
0.214436
0.210925
0.225003
0.251884
0.252897
0.250334
0.25036
0.247438
0.249732
0.304537
0.347077
0.343073
0.252016
0.149998
0.116918
0.107266
0.103022
0.0959624
0.0861586
0.0776761
0.0675887
0.0570426
0.0482246
0.0411655
0.0375077
0.0357362
0.0345852
0.0335591
0.0325657
0.032082
0.0316237
0.030858
0.0301547
0.029352
0.0289455
0.0287282
0.0285183
0.0283928
0.0283516
0.0285138
0.0287041
0.0290368
0.0297124
0.0306572
0.03194
0.0337414
0.0360674
0.0389767
0.0424055
0.0466404
0.0514159
0.0564736
0.0617033
0.0669366
0.071515
0.0748743
0.0771233
0.0782186
0.0780367
0.0759421
0.0715422
0.0660019
0.0616694
0.0582653
0.055744
0.0539951
0.0529783
0.0527329
0.0528789
0.0529427
0.052153
0.0495739
0.0474149
0.0464625
0.0465014
0.047543
0.0535611
0.0603174
0.0609055
0.0582095
0.0511748
0.0478657
0.0486395
0.055321
0.0664155
0.070404
0.0707061
0.0685718
0.0683986
0.0679171
0.0663079
0.066362
0.0676598
0.0682861
0.0672269
0.0582047
0.0383701
0.0275295
0.0232535
0.0222976
0.0221939
0.0218631
0.0205638
0.0550799
0.191629
0.153844
0.0900573
0.0880892
0.095374
0.11117
0.130499
0.140999
0.147828
0.153204
0.158288
0.163361
0.168126
0.172369
0.175947
0.178763
0.180662
0.18165
0.181758
0.181344
0.179773
0.17557
0.169114
0.16108
0.15191
0.143095
0.134174
0.125714
0.119781
0.116498
0.113455
0.107196
0.0991586
0.0914558
0.0831821
0.0744606
0.0675882
0.0647322
0.0647821
0.0667801
0.0725664
0.0774329
0.0797219
0.0823862
0.089134
0.103617
0.123648
0.146338
0.175615
0.210026
0.242406
0.266381
0.283932
0.296808
0.307542
0.316929
0.324209
0.329389
0.336577
0.345026
0.346849
0.336276
0.312348
0.280296
0.255292
0.238883
0.221702
0.208741
0.206531
0.215152
0.259579
0.354295
0.41008
0.339114
0.217583
0.204716
0.241721
0.271723
0.27175
0.269074
0.26205
0.257911
0.254234
0.248786
0.259982
0.319932
0.332016
0.278183
0.15963
0.119033
0.105491
0.0992345
0.0883896
0.0724349
0.0614347
0.0526402
0.0423854
0.0382261
0.0361345
0.0347026
0.0341241
0.0339511
0.033931
0.0339972
0.0338861
0.0334814
0.0327665
0.0317902
0.0308511
0.0292223
0.0281614
0.0276165
0.0270097
0.0264118
0.0260036
0.0256422
0.0251028
0.0245012
0.0240001
0.0235748
0.0231109
0.02277
0.0225465
0.0224417
0.0224597
0.0226391
0.0230596
0.0238918
0.0253594
0.0278411
0.0316552
0.0368734
0.0424114
0.0467534
0.0488294
0.0482346
0.0427919
0.0373901
0.0329971
0.0288498
0.025088
0.0218373
0.0191048
0.0171239
0.0162185
0.0162644
0.0173957
0.0202004
0.0224265
0.0231772
0.0233765
0.0239655
0.0269823
0.0386788
0.0474803
0.0486102
0.0475462
0.0402914
0.0357654
0.0370347
0.0488862
0.0674635
0.0737072
0.0741582
0.0719664
0.0616124
0.0564978
0.0565573
0.0594052
0.0645191
0.0659762
0.0633741
0.0471158
0.0301951
0.0242427
0.0228266
0.0219658
0.0193017
0.0156434
0.13099
0.111015
0.0654197
0.0674388
0.0856458
0.124134
0.136683
0.141277
0.145487
0.14935
0.153204
0.156907
0.160961
0.164945
0.168645
0.171752
0.174875
0.177915
0.180255
0.181744
0.181994
0.181497
0.17897
0.17496
0.172505
0.168992
0.164357
0.15947
0.151877
0.142
0.133296
0.122302
0.112711
0.103257
0.0923185
0.0822694
0.0707996
0.0625052
0.0597723
0.0599239
0.0631732
0.070237
0.0771368
0.0827589
0.0951629
0.12494
0.149837
0.171521
0.198379
0.227914
0.251211
0.266949
0.27985
0.290065
0.297122
0.302591
0.30622
0.311055
0.320128
0.335339
0.351196
0.365595
0.374118
0.377361
0.37696
0.365165
0.352892
0.345529
0.343496
0.354061
0.367056
0.370893
0.342956
0.250331
0.213154
0.222191
0.264356
0.270221
0.266507
0.261913
0.255674
0.253188
0.254298
0.254189
0.254004
0.283307
0.312255
0.299905
0.1944
0.126129
0.107056
0.0988896
0.0885594
0.0706933
0.0553556
0.046039
0.0397118
0.0375572
0.0369712
0.0368436
0.0370224
0.0390941
0.0433727
0.0462487
0.0473514
0.0477248
0.0473245
0.0449124
0.0432338
0.0415401
0.038114
0.0350568
0.032969
0.0313162
0.0301508
0.0297041
0.0291
0.0279628
0.0267596
0.0253568
0.0243165
0.0232788
0.0225183
0.0218439
0.021234
0.0206294
0.0199849
0.0192855
0.0185439
0.0178224
0.0172071
0.0169599
0.0173069
0.0186117
0.0209587
0.0239498
0.0264577
0.0273375
0.0267837
0.0252816
0.0232369
0.0205614
0.0175133
0.0146127
0.0120783
0.0101271
0.00909862
0.00900572
0.00943218
0.011541
0.0145353
0.0157403
0.0165541
0.0186512
0.0272
0.0385811
0.0412522
0.041003
0.0377326
0.0313306
0.0312687
0.039077
0.0621878
0.0721485
0.0734154
0.0691179
0.0550741
0.0517689
0.0542117
0.0606948
0.0649745
0.0663618
0.0652143
0.0529491
0.0337379
0.026679
0.023471
0.0195328
0.0133962
0.00934354
0.0521859
0.0744767
0.0482914
0.0695061
0.121566
0.135445
0.139259
0.141441
0.143392
0.146143
0.148592
0.150286
0.151733
0.153292
0.155168
0.157204
0.160826
0.165108
0.169177
0.171654
0.1732
0.173789
0.173528
0.1723
0.17179
0.170948
0.169382
0.167167
0.162213
0.154147
0.148891
0.141208
0.122445
0.103742
0.090668
0.0765134
0.0645724
0.0600437
0.0594775
0.0610616
0.0677568
0.0770062
0.0899256
0.11759
0.144988
0.155718
0.172451
0.203883
0.233147
0.249881
0.260674
0.262238
0.254741
0.239649
0.223462
0.215922
0.214466
0.221472
0.242348
0.267904
0.294108
0.323995
0.353826
0.37304
0.380174
0.382105
0.381744
0.379089
0.374442
0.364043
0.34241
0.282703
0.222211
0.204911
0.230076
0.262359
0.266709
0.266558
0.264279
0.254822
0.249261
0.249119
0.251917
0.256081
0.266823
0.288296
0.293481
0.240734
0.144874
0.114708
0.104969
0.0985053
0.0855212
0.0677447
0.0535081
0.0428288
0.0386469
0.0377959
0.0378023
0.0393867
0.0442166
0.0522031
0.055755
0.05675
0.0569535
0.0565209
0.0545761
0.0521187
0.0499438
0.047587
0.0450057
0.0425059
0.0400779
0.0380283
0.0359394
0.0344181
0.0339289
0.033363
0.0327001
0.0315807
0.0298235
0.0277352
0.0257591
0.0243848
0.0232678
0.0223147
0.0214217
0.0204832
0.0194186
0.0181674
0.0169439
0.0158061
0.0148615
0.0142435
0.0139849
0.0143554
0.0160018
0.019019
0.0211585
0.0219778
0.0219178
0.020806
0.018582
0.0157822
0.0126245
0.00999716
0.00824626
0.00748816
0.00747842
0.00819786
0.0111046
0.0132463
0.0139476
0.0149511
0.0179162
0.0267806
0.0311568
0.0312892
0.0303586
0.0249244
0.0234205
0.0279567
0.0502092
0.0644189
0.0650156
0.053149
0.0399744
0.0422223
0.0604408
0.0693169
0.0695092
0.0689842
0.0671854
0.0564794
0.0381752
0.0290377
0.022404
0.0161337
0.0102942
0.00644277
0.042033
0.0801863
0.040459
0.099483
0.131176
0.136697
0.137811
0.139867
0.14299
0.14606
0.148347
0.149502
0.150139
0.150973
0.152314
0.154211
0.158124
0.162788
0.167251
0.170036
0.170203
0.170701
0.171132
0.171386
0.172073
0.174119
0.174895
0.173996
0.171486
0.169115
0.161887
0.143779
0.120145
0.100008
0.0817672
0.0683065
0.0627211
0.061376
0.0633991
0.0700754
0.0875604
0.113943
0.131461
0.140238
0.150094
0.171999
0.212127
0.233471
0.235654
0.22467
0.185479
0.13709
0.12069
0.114688
0.112574
0.112423
0.117523
0.130826
0.150024
0.177647
0.214895
0.251139
0.287652
0.321908
0.340789
0.348484
0.350415
0.342781
0.314728
0.264757
0.208819
0.187836
0.184795
0.214476
0.254906
0.264139
0.267691
0.268734
0.264913
0.253608
0.24994
0.249856
0.253917
0.264396
0.277711
0.282388
0.261459
0.168545
0.125888
0.112264
0.106386
0.0998736
0.0873659
0.0716318
0.0583219
0.0453514
0.0395285
0.0386471
0.0392819
0.0432699
0.0516745
0.0575971
0.0590347
0.0592797
0.0590564
0.0577816
0.0556786
0.0533952
0.0511613
0.0488219
0.0464862
0.0441525
0.0418343
0.0398491
0.0381381
0.0356403
0.034781
0.0344366
0.034212
0.0340159
0.033654
0.0329478
0.0314897
0.029276
0.0272591
0.0258065
0.0246658
0.0237374
0.0228634
0.02192
0.0206274
0.0189559
0.0168723
0.0149198
0.0136208
0.0128982
0.0126898
0.0133771
0.0161482
0.0186844
0.0198887
0.0201481
0.0197415
0.0181788
0.0154353
0.0118399
0.00875382
0.00710614
0.0067673
0.0070492
0.00916142
0.0122038
0.0133197
0.0137302
0.0145745
0.0179743
0.0222506
0.0229261
0.0227868
0.0195816
0.0162338
0.0171795
0.027542
0.0384323
0.0375441
0.0276869
0.0251962
0.0362753
0.0712625
0.0828247
0.0819736
0.0777222
0.0717243
0.0572603
0.0422088
0.0315831
0.0226402
0.0149067
0.00879888
0.00495362
0.0530935
0.0848979
0.032689
0.112266
0.132868
0.134704
0.137596
0.141495
0.14532
0.148856
0.151101
0.151606
0.151691
0.152231
0.153984
0.157441
0.163807
0.173548
0.181447
0.19196
0.194988
0.192817
0.18628
0.182521
0.18285
0.188291
0.192187
0.19228
0.18829
0.175278
0.160547
0.137856
0.108826
0.0867189
0.0742
0.0681159
0.067793
0.0752072
0.0875156
0.103329
0.117388
0.12944
0.137139
0.151499
0.179046
0.188944
0.191311
0.183531
0.149037
0.110423
0.0910208
0.0839321
0.0804381
0.0787524
0.0782497
0.0792489
0.0850385
0.0949088
0.106976
0.122718
0.142004
0.163147
0.183632
0.203292
0.216723
0.221369
0.220739
0.195802
0.160469
0.147243
0.142869
0.145185
0.171494
0.224401
0.250863
0.260399
0.268723
0.272017
0.269305
0.258443
0.255463
0.255519
0.263115
0.271507
0.274214
0.262989
0.199165
0.139074
0.120455
0.11384
0.110308
0.105857
0.096561
0.0864669
0.0757726
0.0577838
0.0438281
0.0411856
0.0412089
0.0435926
0.0506284
0.0577133
0.0595218
0.0597327
0.0591611
0.0572116
0.054508
0.052193
0.0504846
0.0487645
0.0467912
0.0446879
0.0425806
0.0402054
0.0389603
0.0362265
0.034793
0.0343494
0.0341485
0.0341099
0.034084
0.0340366
0.0338288
0.0332245
0.0318436
0.0296599
0.0273907
0.0256074
0.0244266
0.0235406
0.0227857
0.0219583
0.0209673
0.0192936
0.01666
0.0140621
0.0124204
0.0115638
0.0113434
0.0123038
0.0149583
0.0166058
0.0170543
0.0169627
0.0158764
0.0125829
0.00914256
0.0069376
0.00621431
0.00628688
0.00748931
0.0110187
0.0129366
0.013351
0.0134097
0.0137937
0.0154357
0.0160249
0.0160487
0.0150423
0.0117028
0.0111701
0.0130624
0.0167576
0.0165082
0.0149437
0.017101
0.0375009
0.0814916
0.0961249
0.0958294
0.0910984
0.0779137
0.0610671
0.0467836
0.0345051
0.0238106
0.0149976
0.00835824
0.00434303
0.0583259
0.087288
0.0295092
0.12051
0.130069
0.134456
0.14021
0.146954
0.152336
0.156858
0.159355
0.159227
0.158394
0.158118
0.160559
0.165562
0.174384
0.187941
0.202904
0.21266
0.216645
0.215791
0.212998
0.211331
0.211846
0.212684
0.209457
0.201281
0.188884
0.1723
0.149416
0.118322
0.0950677
0.0832335
0.0773867
0.0819621
0.0958627
0.10653
0.111676
0.116632
0.123192
0.132529
0.144318
0.159435
0.166181
0.163389
0.137168
0.10824
0.0872194
0.0736687
0.0684285
0.0656741
0.063202
0.0614222
0.0606659
0.0604279
0.061141
0.0643175
0.0692935
0.0763337
0.0855588
0.0961558
0.105567
0.111793
0.114505
0.114739
0.105837
0.097942
0.096369
0.0963297
0.0991373
0.111972
0.146628
0.205803
0.236273
0.249186
0.264912
0.274166
0.274419
0.266952
0.262695
0.263127
0.266714
0.26812
0.258617
0.217081
0.154657
0.129439
0.121789
0.11937
0.118814
0.115649
0.10848
0.098872
0.0862741
0.064409
0.0460551
0.041759
0.0412801
0.0426692
0.0474661
0.0551431
0.0578803
0.0579188
0.0558548
0.050896
0.0473284
0.0468254
0.0467511
0.0463526
0.0456407
0.0447206
0.0429653
0.0409547
0.0392663
0.03715
0.0345493
0.0332078
0.032648
0.0326711
0.032959
0.0334847
0.033872
0.0339629
0.0338168
0.0334337
0.0325365
0.0307239
0.0282577
0.0258947
0.0242659
0.0231202
0.0223109
0.0215547
0.020573
0.0185758
0.0152394
0.0123217
0.0105458
0.00955268
0.00925296
0.00981673
0.0106865
0.0108491
0.0108878
0.0106356
0.00862936
0.00618029
0.00516902
0.00511903
0.0057681
0.00897022
0.0120295
0.0129484
0.0129131
0.0125935
0.0125004
0.0123313
0.0120321
0.0113489
0.00913625
0.00812302
0.00828046
0.00912926
0.00930533
0.00965458
0.0138297
0.0395748
0.0885668
0.106846
0.107381
0.103033
0.0878312
0.0688399
0.0528422
0.0386161
0.025917
0.0155614
0.00844773
0.00427575
0.0640233
0.0902587
0.0312837
0.124302
0.128888
0.135946
0.147718
0.156733
0.161726
0.1647
0.165957
0.165928
0.165165
0.164534
0.165006
0.169657
0.179923
0.195586
0.212393
0.221014
0.224152
0.224884
0.224718
0.224017
0.221974
0.217664
0.210226
0.199952
0.184948
0.160485
0.13269
0.109482
0.0966757
0.0922154
0.101057
0.111359
0.11505
0.115242
0.115441
0.117881
0.12415
0.134304
0.14157
0.14409
0.133263
0.116917
0.0984271
0.0759031
0.0650745
0.0602581
0.0577732
0.0553418
0.0525438
0.0501424
0.048868
0.0483646
0.0483156
0.0497168
0.0523758
0.0559034
0.0602606
0.0653129
0.0687076
0.0698718
0.0699566
0.0669856
0.0637084
0.063691
0.0644515
0.0659809
0.0699867
0.0810312
0.10644
0.15245
0.206124
0.233251
0.248437
0.268786
0.275224
0.274974
0.268309
0.264428
0.263378
0.253034
0.220726
0.173844
0.140201
0.129075
0.126019
0.125877
0.125245
0.122141
0.115618
0.105398
0.0891168
0.0627396
0.0435083
0.0394714
0.0391946
0.0402752
0.0433768
0.0489291
0.0519268
0.0510336
0.0456198
0.0436575
0.0446398
0.0457747
0.046187
0.0459176
0.0452909
0.0443606
0.0429418
0.0414959
0.0394963
0.0375831
0.0347063
0.0316886
0.0297936
0.0291566
0.0292873
0.0301431
0.0315871
0.0328268
0.033542
0.0337471
0.0336758
0.0334151
0.0328362
0.0314625
0.0288976
0.026022
0.0238888
0.0225513
0.0217476
0.0209847
0.0197097
0.0166091
0.012566
0.00974504
0.00804737
0.00678294
0.00574679
0.00481495
0.00416411
0.00399706
0.00411545
0.00391697
0.00343821
0.00345866
0.00396425
0.0065799
0.0105679
0.0123285
0.012594
0.012289
0.011614
0.0109508
0.0104552
0.0098156
0.00799958
0.00669038
0.00649263
0.00657836
0.00672843
0.0073826
0.0123089
0.0407387
0.0949743
0.116128
0.117313
0.112872
0.0969505
0.077947
0.0611418
0.0444507
0.0289186
0.0167549
0.00887027
0.00442622
0.0733166
0.0919317
0.0393142
0.125401
0.128942
0.141819
0.154833
0.160974
0.164354
0.166394
0.167173
0.167203
0.166887
0.167092
0.168614
0.173167
0.183333
0.199676
0.216706
0.224043
0.226055
0.22629
0.225878
0.224158
0.221053
0.215503
0.206674
0.193455
0.17377
0.151066
0.129245
0.116127
0.113764
0.116308
0.118258
0.118539
0.116916
0.114491
0.114159
0.116316
0.123644
0.129212
0.129233
0.118911
0.10861
0.0972287
0.0850961
0.0714398
0.0614663
0.0537682
0.0497584
0.0478167
0.0464693
0.0450179
0.04302
0.0419784
0.0413853
0.040953
0.0409467
0.0427466
0.0457017
0.0500213
0.052904
0.0538263
0.0538712
0.0506806
0.0484949
0.0482266
0.0486884
0.0497599
0.0526026
0.0599665
0.0763335
0.106959
0.15347
0.204933
0.230356
0.244769
0.26594
0.27178
0.270506
0.262381
0.253047
0.226176
0.188571
0.154973
0.136721
0.130907
0.129841
0.129439
0.128478
0.125326
0.118775
0.106891
0.0855086
0.04854
0.0306706
0.028015
0.0282799
0.0297273
0.0319211
0.0344144
0.0355591
0.0351567
0.0369084
0.0423379
0.045869
0.048046
0.0481852
0.046773
0.0455222
0.0443593
0.0425683
0.0410065
0.0383883
0.0364423
0.0342537
0.0310116
0.0275145
0.0249099
0.0239042
0.0242089
0.0256861
0.0281862
0.0305788
0.0322671
0.0331441
0.033471
0.0335005
0.0333555
0.0329293
0.0316789
0.0286497
0.0251986
0.022995
0.0218387
0.0211084
0.0200642
0.0175209
0.0127231
0.00903077
0.00660072
0.00480371
0.00331616
0.00221962
0.00158789
0.00136526
0.00135162
0.0014051
0.0016284
0.00243027
0.00539957
0.00944705
0.0115555
0.012154
0.0120409
0.0112459
0.0105068
0.0099814
0.00915824
0.00730895
0.00564004
0.00494526
0.00484362
0.00486805
0.00545448
0.0105271
0.0402563
0.10086
0.124925
0.126802
0.122156
0.105491
0.0862731
0.0687926
0.0506998
0.0331906
0.019211
0.0101885
0.00503883
0.0807565
0.0949219
0.0612059
0.123525
0.129875
0.145385
0.15605
0.161194
0.164183
0.166045
0.166819
0.167045
0.167062
0.167568
0.169371
0.173726
0.181174
0.192835
0.208852
0.219633
0.22301
0.223738
0.223167
0.219909
0.214843
0.206767
0.195195
0.180764
0.165177
0.149502
0.135292
0.129978
0.125642
0.122051
0.119454
0.116939
0.112098
0.107452
0.106664
0.108994
0.116147
0.1179
0.115451
0.107831
0.0996965
0.0914479
0.0835682
0.0755602
0.0693108
0.0628215
0.0564924
0.0523996
0.0505022
0.0482655
0.0448729
0.0427988
0.0416506
0.0398487
0.0384936
0.0378181
0.0373421
0.0375988
0.0413409
0.0462125
0.0484907
0.0491026
0.0460992
0.0439868
0.0435529
0.0436082
0.0445907
0.0479199
0.0560641
0.0725928
0.10182
0.147763
0.202443
0.225697
0.237168
0.253502
0.259943
0.25519
0.234982
0.207595
0.173619
0.147514
0.136634
0.132889
0.131474
0.130635
0.129343
0.126335
0.120019
0.106712
0.0769019
0.0350637
0.0222348
0.0198365
0.0197057
0.0204735
0.0221185
0.0235928
0.0256645
0.0299613
0.0397785
0.0480883
0.0513818
0.0515012
0.0498864
0.0477279
0.0456527
0.0437362
0.0409641
0.0375273
0.0333895
0.0302237
0.0292245
0.0281541
0.0255802
0.0217045
0.0192775
0.0183348
0.0184313
0.0197877
0.023301
0.0273521
0.0301427
0.0318214
0.0328252
0.0332952
0.0333858
0.0332801
0.0327848
0.030806
0.0265869
0.023476
0.0218888
0.0210533
0.0200082
0.0174096
0.0121647
0.00795158
0.00509515
0.00320266
0.00193654
0.00115743
0.00078107
0.000686871
0.000702493
0.000871045
0.0016932
0.00492398
0.00899362
0.0111403
0.0118051
0.0117896
0.0110912
0.0103261
0.00980928
0.00866055
0.00678563
0.00493575
0.00373937
0.00328344
0.00325893
0.00383883
0.00881349
0.0381912
0.103527
0.131351
0.134518
0.130053
0.112444
0.0933866
0.07661
0.0579691
0.0391479
0.0238096
0.0132111
0.00661248
0.0885248
0.0999244
0.0809702
0.122474
0.129691
0.144798
0.151822
0.15527
0.158346
0.161288
0.16297
0.163869
0.164808
0.166144
0.168155
0.171646
0.177645
0.186087
0.196016
0.205255
0.20957
0.211158
0.211172
0.206685
0.201337
0.194357
0.184698
0.173869
0.161699
0.149673
0.139144
0.132142
0.125662
0.120036
0.114139
0.104753
0.0898343
0.0838431
0.0827952
0.084467
0.0884574
0.0881893
0.0868992
0.0860883
0.0836684
0.0797411
0.0759298
0.071458
0.0662798
0.0615241
0.0579011
0.0555959
0.0524131
0.0492186
0.0466828
0.0448412
0.0433817
0.0417886
0.0400847
0.0389823
0.0364395
0.0351975
0.0349105
0.0350056
0.0369893
0.0420424
0.0444313
0.0453937
0.0434098
0.0428326
0.0427948
0.0435269
0.0463135
0.0529946
0.0660969
0.0901698
0.132982
0.192504
0.218543
0.226933
0.230409
0.231196
0.213007