/*--------------------------------*- C++ -*----------------------------------*\
  =========                 |
  \\      /  F ield         | OpenFOAM: The Open Source CFD Toolbox
   \\    /   O peration     | Website:  https://openfoam.org
    \\  /    A nd           | Version:  6
     \\/     M anipulation  |
\*---------------------------------------------------------------------------*/
FoamFile
{
    version     2.0;
    format      ascii;
    class       surfaceScalarField;
    location    "0.4";
    object      phi_0;
}
// * * * * * * * * * * * * * * * * * * * * * * * * * * * * * * * * * * * * * //

dimensions      [0 3 -1 0 0 0 0];

internalField   nonuniform List<scalar> 
24170
(
3.05755e-06
5.44206e-08
2.97289e-06
8.46614e-08
2.89644e-06
7.64537e-08
2.79998e-06
9.64584e-08
2.68993e-06
1.10049e-07
2.58117e-06
1.0876e-07
2.47729e-06
1.03878e-07
2.37699e-06
1.00303e-07
2.28249e-06
9.45008e-08
2.19874e-06
8.37434e-08
2.12883e-06
6.99135e-08
2.07079e-06
5.80423e-08
2.01605e-06
5.4739e-08
1.95813e-06
5.79178e-08
1.89487e-06
6.32618e-08
1.82139e-06
7.34763e-08
1.73521e-06
8.61804e-08
1.28413e-07
1.6068e-06
3.39535e-06
1.39755e-07
3.39255e-06
8.74607e-08
3.38055e-06
8.84548e-08
3.39089e-06
8.6122e-08
3.42407e-06
7.68697e-08
3.45651e-06
7.63144e-08
3.46852e-06
9.18723e-08
3.45488e-06
1.13945e-07
3.42318e-06
1.26199e-07
3.38652e-06
1.20401e-07
3.35433e-06
1.02107e-07
3.33048e-06
8.18927e-08
3.31485e-06
7.03724e-08
3.30232e-06
7.04411e-08
3.2887e-06
7.68875e-08
3.27189e-06
9.02826e-08
3.24518e-06
1.12889e-07
1.67026e-07
3.20657e-06
3.5943e-06
5.12817e-08
3.57606e-06
1.05702e-07
3.55263e-06
1.11882e-07
3.56139e-06
7.73688e-08
3.58703e-06
5.12255e-08
3.61406e-06
4.92841e-08
3.63981e-06
6.61285e-08
3.66643e-06
8.73191e-08
3.69331e-06
9.93209e-08
3.71659e-06
9.71158e-08
3.73131e-06
8.73913e-08
3.7344e-06
7.88013e-08
3.72783e-06
7.69419e-08
3.71513e-06
8.31451e-08
3.70042e-06
9.16e-08
3.68689e-06
1.0381e-07
3.67723e-06
1.22549e-07
1.56897e-07
3.68736e-06
3.84308e-06
-2.71447e-08
3.89868e-06
5.01006e-08
3.91458e-06
9.59838e-08
3.92095e-06
7.09989e-08
3.92921e-06
4.29639e-08
3.93395e-06
4.45438e-08
3.93102e-06
6.90603e-08
3.92405e-06
9.42869e-08
3.91891e-06
1.04469e-07
3.91798e-06
9.80393e-08
3.92044e-06
8.49368e-08
3.92387e-06
7.53668e-08
3.92698e-06
7.38318e-08
3.92923e-06
8.08921e-08
3.93107e-06
8.97628e-08
3.93392e-06
1.00964e-07
3.94276e-06
1.13709e-07
1.29326e-07
3.97033e-06
4.28113e-06
1.83849e-08
4.23676e-06
9.44709e-08
4.20905e-06
1.23698e-07
4.20183e-06
7.82125e-08
4.19971e-06
4.50884e-08
4.19634e-06
4.7917e-08
4.19451e-06
7.08878e-08
4.19696e-06
9.1835e-08
4.20299e-06
9.84412e-08
4.20955e-06
9.14819e-08
4.21393e-06
8.05498e-08
4.21454e-06
7.47625e-08
4.21186e-06
7.65097e-08
4.20774e-06
8.50151e-08
4.20363e-06
9.38737e-08
4.20273e-06
1.01858e-07
4.21024e-06
1.062e-07
1.07307e-07
4.23226e-06
4.43247e-06
-3.00771e-08
4.45076e-06
7.61743e-08
4.47647e-06
9.79857e-08
4.48301e-06
7.16823e-08
4.47063e-06
5.74674e-08
4.45834e-06
6.02036e-08
4.45964e-06
6.9587e-08
4.47359e-06
7.78821e-08
4.49041e-06
8.16258e-08
4.50108e-06
8.08107e-08
4.50301e-06
7.86194e-08
4.49927e-06
7.85032e-08
4.49478e-06
8.0995e-08
4.49376e-06
8.60387e-08
4.49701e-06
9.06254e-08
4.50585e-06
9.30185e-08
4.51978e-06
9.22665e-08
8.78986e-08
4.53919e-06
4.84982e-06
2.0077e-08
4.78718e-06
1.38815e-07
4.77358e-06
1.11592e-07
4.79338e-06
5.18825e-08
4.82095e-06
2.98985e-08
4.84289e-06
3.82592e-08
4.86059e-06
5.18832e-08
4.87657e-06
6.19054e-08
4.88787e-06
7.03274e-08
4.89051e-06
7.81664e-08
4.88489e-06
8.42416e-08
4.87575e-06
8.76417e-08
4.86858e-06
8.81713e-08
4.86775e-06
8.68646e-08
4.87393e-06
8.44407e-08
4.88633e-06
8.06276e-08
4.90265e-06
7.59437e-08
6.89524e-08
4.92159e-06
5.21253e-06
1.17151e-07
5.19951e-06
1.51826e-07
5.21403e-06
9.70778e-08
5.20654e-06
5.93686e-08
5.18187e-06
5.45697e-08
5.16493e-06
5.52048e-08
5.16534e-06
5.14689e-08
5.17797e-06
4.92721e-08
5.19377e-06
5.45333e-08
5.20576e-06
6.61744e-08
5.21064e-06
7.93628e-08
5.20857e-06
8.97087e-08
5.20227e-06
9.4471e-08
5.19621e-06
9.29233e-08
5.19417e-06
8.64876e-08
5.19814e-06
7.66505e-08
5.2085e-06
6.55817e-08
5.29111e-08
5.22455e-06
5.4812e-06
-9.3257e-08
5.53554e-06
9.74906e-08
5.49883e-06
1.3378e-07
5.4441e-06
1.14101e-07
5.41752e-06
8.11515e-08
5.41834e-06
5.43814e-08
5.43021e-06
3.96055e-08
5.44609e-06
3.3385e-08
5.46834e-06
3.2292e-08
5.50053e-06
3.39804e-08
5.5418e-06
3.80962e-08
5.58607e-06
4.543e-08
5.62464e-06
5.59093e-08
5.64947e-06
6.80851e-08
5.6574e-06
7.85599e-08
5.65003e-06
8.40186e-08
5.63319e-06
8.24277e-08
7.10582e-08
5.61504e-06
5.90281e-06
1.58726e-09
5.94171e-06
5.85881e-08
5.98084e-06
9.46458e-08
6.01627e-06
7.86754e-08
6.04564e-06
5.17746e-08
6.05723e-06
4.27955e-08
6.0456e-06
5.1235e-08
6.017e-06
6.19818e-08
5.9864e-06
6.28946e-08
5.96764e-06
5.27382e-08
5.9658e-06
3.99442e-08
5.97671e-06
3.45203e-08
5.99173e-06
4.08835e-08
6.00204e-06
5.77782e-08
6.00231e-06
7.82861e-08
5.99201e-06
9.43193e-08
5.97447e-06
9.99663e-08
9.00193e-08
5.95551e-06
6.32982e-06
-5.58872e-08
6.3798e-06
8.60617e-09
6.3972e-06
7.72423e-08
6.37377e-06
1.02109e-07
6.35375e-06
7.17927e-08
6.36657e-06
2.99761e-08
6.40677e-06
1.10392e-08
6.45367e-06
1.50802e-08
6.4903e-06
2.62618e-08
6.50766e-06
3.53792e-08
6.50366e-06
4.39438e-08
6.48174e-06
5.64358e-08
6.44938e-06
7.32466e-08
6.41567e-06
9.14916e-08
6.387e-06
1.06951e-07
6.36714e-06
1.14185e-07
6.35525e-06
1.11854e-07
9.73721e-08
6.3479e-06
5.65936e-06
6.24721e-09
5.6733e-06
-5.32922e-09
5.6782e-06
7.23403e-08
5.67723e-06
1.03079e-07
5.68525e-06
6.37666e-08
5.6998e-06
1.54306e-08
5.70817e-06
2.66263e-09
5.70362e-06
1.96396e-08
5.69114e-06
3.87385e-08
5.6808e-06
4.57133e-08
5.67929e-06
4.54598e-08
5.68741e-06
4.83103e-08
5.70181e-06
5.88498e-08
5.71885e-06
7.44557e-08
5.7353e-06
9.05017e-08
5.74863e-06
1.00848e-07
5.75658e-06
1.03911e-07
9.63251e-08
5.75762e-06
6.99414e-06
1.29448e-07
6.93127e-06
5.75423e-08
6.95548e-06
4.81358e-08
7.00304e-06
5.55194e-08
7.03051e-06
3.6293e-08
7.02866e-06
1.7286e-08
7.01036e-06
2.09627e-08
6.99121e-06
3.87858e-08
6.9783e-06
5.16506e-08
6.97101e-06
5.3002e-08
6.96611e-06
5.03534e-08
6.96188e-06
5.25474e-08
6.95782e-06
6.29107e-08
6.95476e-06
7.75136e-08
6.95359e-06
9.16748e-08
6.95458e-06
9.9856e-08
6.95828e-06
1.00211e-07
9.26406e-08
6.96196e-06
8.38705e-06
8.40261e-08
8.40263e-06
4.19661e-08
8.43273e-06
1.80316e-08
8.469e-06
1.92504e-08
8.50282e-06
2.47938e-09
8.52465e-06
-4.54916e-09
8.53546e-06
1.0151e-08
8.5395e-06
3.47442e-08
8.53723e-06
5.39268e-08
8.52814e-06
6.20873e-08
8.51494e-06
6.35613e-08
8.50325e-06
6.42282e-08
8.49859e-06
6.7577e-08
8.50367e-06
7.24275e-08
8.51783e-06
7.75199e-08
8.53755e-06
8.01306e-08
8.55759e-06
8.01778e-08
7.67102e-08
8.57352e-06
1.03878e-05
1.48845e-07
1.03519e-05
7.78803e-08
1.03245e-05
4.53816e-08
1.03052e-05
3.85228e-08
1.02875e-05
2.02044e-08
1.02732e-05
9.76031e-09
1.02666e-05
1.67574e-08
1.02735e-05
2.78109e-08
1.02955e-05
3.19453e-08
1.03277e-05
2.99485e-08
1.03617e-05
2.95538e-08
1.03897e-05
3.61685e-08
1.04075e-05
4.97877e-08
1.04136e-05
6.63047e-08
1.04109e-05
8.02341e-08
1.04018e-05
8.92932e-08
1.03902e-05
9.16941e-08
9.00592e-08
1.03769e-05
1.2588e-05
2.40407e-07
1.25331e-05
1.328e-07
1.25126e-05
6.58015e-08
1.25732e-05
-2.20509e-08
1.2678e-05
-8.4627e-08
1.27523e-05
-6.45432e-08
1.27642e-05
4.89238e-09
1.27352e-05
5.67831e-08
1.27039e-05
6.32905e-08
1.26912e-05
4.26349e-08
1.26933e-05
2.74231e-08
1.26938e-05
3.57042e-08
1.2679e-05
6.45866e-08
1.26455e-05
9.97698e-08
1.26006e-05
1.25164e-07
1.25558e-05
1.34107e-07
1.25216e-05
1.25924e-07
1.08147e-07
1.25035e-05
1.54406e-05
-1.71467e-07
1.54491e-05
1.24277e-07
1.53818e-05
1.33107e-07
1.53178e-05
4.19647e-08
1.5255e-05
-2.17997e-08
1.52174e-05
-2.69895e-08
1.52186e-05
3.68795e-09
1.52446e-05
3.07891e-08
1.52709e-05
3.69649e-08
1.52829e-05
3.06363e-08
1.52834e-05
2.69157e-08
1.52854e-05
3.37728e-08
1.53004e-05
4.95449e-08
1.53322e-05
6.80219e-08
1.53742e-05
8.31237e-08
1.54164e-05
9.19291e-08
1.54465e-05
9.58087e-08
9.54864e-08
1.54592e-05
1.84173e-05
-1.43671e-07
1.85592e-05
-1.75345e-08
1.86589e-05
3.34044e-08
1.86993e-05
1.52491e-09
1.86955e-05
-1.79977e-08
1.86811e-05
-1.25987e-08
1.8683e-05
1.80455e-09
1.87024e-05
1.14193e-08
1.87218e-05
1.74989e-08
1.87247e-05
2.77719e-08
1.87091e-05
4.24895e-08
1.86873e-05
5.56016e-08
1.86746e-05
6.22147e-08
1.86795e-05
6.31771e-08
1.86992e-05
6.34028e-08
1.87242e-05
6.6917e-08
1.87434e-05
7.66374e-08
9.27103e-08
1.87461e-05
2.29489e-05
1.35281e-07
2.30063e-05
-7.48837e-08
2.31096e-05
-6.99085e-08
2.31006e-05
1.05039e-08
2.30131e-05
6.94658e-08
2.29258e-05
7.47877e-08
2.28874e-05
4.01331e-08
2.28941e-05
4.77011e-09
2.29169e-05
-5.35352e-09
2.29354e-05
9.31706e-09
2.29441e-05
3.37477e-08
2.29468e-05
5.29696e-08
2.29489e-05
6.00535e-08
2.29561e-05
5.59871e-08
2.2971e-05
4.85024e-08
2.29922e-05
4.57442e-08
2.30164e-05
5.2461e-08
7.15318e-08
2.30375e-05
1.69909e-05
8.52831e-08
1.68684e-05
4.7616e-08
1.67808e-05
1.7744e-08
1.67752e-05
1.60618e-08
1.68116e-05
3.30902e-08
1.68421e-05
4.43165e-08
1.68428e-05
3.93988e-08
1.68189e-05
2.87075e-08
1.67882e-05
2.52974e-08
1.67654e-05
3.21379e-08
1.67555e-05
4.36721e-08
1.67561e-05
5.23774e-08
1.67615e-05
5.45989e-08
1.67674e-05
5.00714e-08
1.67747e-05
4.1279e-08
1.67868e-05
3.36207e-08
1.68094e-05
2.97895e-08
3.67707e-08
1.68442e-05
1.45991e-05
3.40747e-08
1.45817e-05
6.5046e-08
1.45936e-05
5.81802e-09
1.46116e-05
-1.9461e-09
1.46337e-05
1.09764e-08
1.46549e-05
2.31477e-08
1.465e-05
4.43086e-08
1.46037e-05
7.49333e-08
1.45299e-05
9.90874e-08
1.44605e-05
1.01577e-07
1.44234e-05
8.07854e-08
1.44284e-05
4.73413e-08
1.44675e-05
1.55737e-08
1.45218e-05
-4.25872e-09
1.45729e-05
-9.87775e-09
1.46101e-05
-3.52379e-09
1.463e-05
9.83575e-09
2.53064e-08
1.46415e-05
1.272e-05
-9.02694e-09
1.2765e-05
1.99707e-08
1.27358e-05
3.50654e-08
1.27235e-05
1.03405e-08
1.27446e-05
-1.0106e-08
1.278e-05
-1.22417e-08
1.2806e-05
1.82993e-08
1.28134e-05
6.75562e-08
1.28115e-05
1.00969e-07
1.28167e-05
9.63275e-08
1.28409e-05
5.66694e-08
1.28865e-05
1.74223e-09
1.29479e-05
-4.58908e-08
1.30145e-05
-7.0813e-08
1.30727e-05
-6.81062e-08
1.31124e-05
-4.32631e-08
1.31276e-05
-5.31853e-09
3.54766e-08
1.31174e-05
1.09364e-05
8.6099e-08
1.09214e-05
3.49238e-08
1.09513e-05
5.22576e-09
1.0967e-05
-5.40647e-09
1.09574e-05
-4.44467e-10
1.09375e-05
7.64309e-09
1.09314e-05
2.43703e-08
1.09488e-05
5.01258e-08
1.09808e-05
6.89778e-08
1.10125e-05
6.46357e-08
1.10352e-05
3.39951e-08
1.10498e-05
-1.28528e-08
1.10632e-05
-5.92899e-08
1.10838e-05
-9.14457e-08
1.11176e-05
-1.01838e-07
1.11651e-05
-9.08069e-08
1.12234e-05
-6.36095e-08
-2.66555e-08
1.12855e-05
9.47877e-06
-1.59705e-07
9.61005e-06
-9.6361e-08
9.63629e-06
-2.10081e-08
9.62365e-06
7.23006e-09
9.61328e-06
9.92786e-09
9.61307e-06
7.85436e-09
9.62124e-06
1.61993e-08
9.63969e-06
3.16721e-08
9.66936e-06
3.93127e-08
9.70502e-06
2.89708e-08
9.7369e-06
2.12292e-09
9.75565e-06
-3.16124e-08
9.75682e-06
-6.04598e-08
9.74098e-06
-7.56034e-08
9.71329e-06
-7.41462e-08
9.68116e-06
-5.86775e-08
9.65218e-06
-3.46306e-08
-6.97978e-09
9.63251e-06
8.33054e-06
-1.94862e-07
8.41168e-06
-1.77497e-07
8.46665e-06
-7.59767e-08
8.47647e-06
-2.59269e-09
8.46927e-06
1.71248e-08
8.47491e-06
2.21905e-09
8.49854e-06
-7.43555e-09
8.52392e-06
6.29531e-09
8.53345e-06
2.9781e-08
8.52267e-06
3.97577e-08
8.50007e-06
2.47192e-08
8.47827e-06
-9.81479e-09
8.4662e-06
-4.83866e-08
8.46585e-06
-7.52551e-08
8.47366e-06
-8.19612e-08
8.4846e-06
-6.96135e-08
8.49441e-06
-4.44447e-08
-1.45484e-08
8.50198e-06
7.06379e-06
-1.6198e-07
7.064e-06
-1.77705e-07
7.12365e-06
-1.35627e-07
7.2002e-06
-7.91455e-08
7.25614e-06
-3.88197e-08
7.29081e-06
-3.24513e-08
7.32407e-06
-4.0689e-08
7.36928e-06
-3.89188e-08
7.42e-06
-2.09432e-08
7.45837e-06
1.38903e-09
7.47048e-06
1.26085e-08
7.45474e-06
5.93425e-09
7.42066e-06
-1.43098e-08
7.38278e-06
-3.73796e-08
7.3537e-06
-5.28762e-08
7.33998e-06
-5.58959e-08
7.34266e-06
-4.71239e-08
-3.02326e-08
7.35834e-06
6.40328e-06
-2.62902e-07
6.39165e-06
-1.66082e-07
6.39706e-06
-1.41035e-07
6.42136e-06
-1.03446e-07
6.42048e-06
-3.79406e-08
6.39032e-06
-2.29053e-09
6.36215e-06
-1.25171e-08
6.36154e-06
-3.83068e-08
6.38962e-06
-4.90255e-08
6.4301e-06
-3.90882e-08
6.46346e-06
-2.07607e-08
6.47749e-06
-8.09182e-09
6.4706e-06
-7.41807e-09
6.44996e-06
-1.67366e-08
6.42647e-06
-2.93937e-08
6.40923e-06
-3.86568e-08
6.40366e-06
-4.1549e-08
-3.76103e-08
6.41104e-06
5.48206e-06
-1.27774e-07
5.43771e-06
-1.21739e-07
5.42355e-06
-1.26874e-07
5.42977e-06
-1.09665e-07
5.46132e-06
-6.94845e-08
5.5094e-06
-5.03728e-08
5.55382e-06
-5.69397e-08
5.58228e-06
-6.6764e-08
5.59694e-06
-6.36817e-08
5.60615e-06
-4.83028e-08
5.61501e-06
-2.96236e-08
5.62299e-06
-1.60661e-08
5.6267e-06
-1.11349e-08
5.62394e-06
-1.39714e-08
5.61577e-06
-2.12233e-08
5.60596e-06
-2.88527e-08
5.59973e-06
-3.53143e-08
-3.75211e-08
5.59964e-06
4.87055e-06
-1.81072e-08
4.87347e-06
-1.24652e-07
4.86609e-06
-1.19495e-07
4.83876e-06
-8.23356e-08
4.82352e-06
-5.42464e-08
4.81951e-06
-4.63658e-08
4.81317e-06
-5.05995e-08
4.80383e-06
-5.74246e-08
4.80116e-06
-6.10089e-08
4.81194e-06
-5.90859e-08
4.834e-06
-5.16836e-08
4.85859e-06
-4.06566e-08
4.87644e-06
-2.89817e-08
4.88286e-06
-2.03886e-08
4.87907e-06
-1.74324e-08
4.87006e-06
-1.98452e-08
4.86078e-06
-2.60407e-08
-3.19827e-08
4.85525e-06
4.12729e-06
4.00264e-06
3.88315e-06
3.80081e-06
3.74657e-06
3.7002e-06
3.6496e-06
3.59218e-06
3.53117e-06
3.47208e-06
3.4204e-06
3.37974e-06
3.35076e-06
3.33037e-06
3.31294e-06
3.29309e-06
3.26705e-06
3.23507e-06
-1.71364e-07
1.71364e-07
-3.28391e-07
1.57027e-07
-4.66671e-07
1.3828e-07
-5.16454e-07
4.97831e-08
-3.66717e-07
-1.49737e-07
1.57853e-08
-3.82503e-07
5.83635e-07
-5.6785e-07
1.25865e-06
-6.75016e-07
1.97263e-06
-7.13975e-07
2.6744e-06
-7.01773e-07
3.3296e-06
-6.55202e-07
3.91716e-06
-5.87562e-07
4.42566e-06
-5.08493e-07
4.84972e-06
-4.24069e-07
5.1875e-06
-3.37777e-07
5.43907e-06
-2.5157e-07
5.60527e-06
-1.66199e-07
5.68732e-06
-8.20545e-08
5.68539e-06
1.92974e-09
5.59946e-06
8.59332e-08
5.4313e-06
1.68164e-07
5.18393e-06
2.47366e-07
4.86147e-06
3.22463e-07
4.46903e-06
3.92435e-07
4.01362e-06
4.55409e-07
3.50567e-06
5.07952e-07
2.96142e-06
5.44254e-07
2.40501e-06
5.56412e-07
1.86729e-06
5.37712e-07
1.376e-06
4.91296e-07
9.44612e-07
4.31386e-07
5.70049e-07
3.74564e-07
2.3999e-07
3.30059e-07
-6.09863e-08
3.00976e-07
-3.41133e-07
2.80146e-07
-5.80142e-07
2.3901e-07
-7.21821e-07
1.41679e-07
-7.64883e-07
4.30619e-08
-7.65387e-07
5.03561e-10
-7.6172e-07
-3.66707e-09
-8.06942e-07
4.52222e-08
-1.00408e-06
1.97135e-07
-1.28925e-06
2.85177e-07
-1.48896e-06
1.9971e-07
-1.53562e-06
4.66583e-08
-1.4527e-06
-8.29198e-08
-1.23166e-06
-2.21046e-07
-9.11914e-07
-3.19743e-07
-5.34686e-07
-3.77229e-07
-1.1646e-07
-4.18225e-07
3.32747e-07
-4.49208e-07
8.03681e-07
-4.70933e-07
1.28785e-06
-4.84172e-07
1.76968e-06
-4.81826e-07
2.24362e-06
-4.73939e-07
2.70764e-06
-4.64025e-07
3.15574e-06
-4.48095e-07
3.5667e-06
-4.10958e-07
3.91855e-06
-3.51854e-07
4.20765e-06
-2.89102e-07
4.42461e-06
-2.16959e-07
4.54206e-06
-1.17451e-07
4.5473e-06
-5.24336e-09
4.4498e-06
9.75019e-08
4.25803e-06
1.91775e-07
3.98898e-06
2.6905e-07
3.68638e-06
3.02601e-07
3.41351e-06
2.72869e-07
3.2382e-06
1.75304e-07
3.17622e-06
6.19808e-08
3.15659e-06
1.96307e-08
3.12466e-06
3.19296e-08
3.04272e-06
8.19426e-08
2.85653e-06
1.8619e-07
2.70887e-06
1.47661e-07
2.85079e-06
-1.41925e-07
3.30601e-06
-4.55219e-07
3.84692e-06
-5.4091e-07
4.25474e-06
-4.07818e-07
4.48861e-06
-2.33873e-07
4.51057e-06
-2.19593e-08
4.23163e-06
2.78944e-07
3.63749e-06
5.94139e-07
2.75102e-06
8.86466e-07
1.63086e-06
1.12016e-06
5.01752e-07
1.12911e-06
-3.51284e-07
8.53036e-07
-7.78507e-07
4.27223e-07
-1.07439e-06
2.95886e-07
-2.30687e-06
1.23248e-06
-4.975e-06
2.66812e-06
-8.20946e-06
3.23446e-06
-1.049e-05
2.28052e-06
-1.20469e-05
1.55689e-06
-1.325e-05
1.20317e-06
-1.39216e-05
6.7158e-07
-1.44453e-05
5.23666e-07
-1.4796e-05
3.50733e-07
-1.50452e-05
2.49223e-07
-1.52701e-05
2.24842e-07
-1.54115e-05
1.41386e-07
-1.55166e-05
1.0513e-07
-1.55476e-05
3.10204e-08
-1.54952e-05
-5.24351e-08
-1.53705e-05
-1.24653e-07
-1.51586e-05
-2.11954e-07
-1.48691e-05
-2.8945e-07
-1.45055e-05
-3.63586e-07
-1.40773e-05
-4.28262e-07
-1.36002e-05
-4.77057e-07
-1.30811e-05
-5.1914e-07
-1.25307e-05
-5.50364e-07
-1.19614e-05
-5.69307e-07
-1.13802e-05
-5.81176e-07
-1.07923e-05
-5.87986e-07
-1.02022e-05
-5.90062e-07
-9.61474e-06
-5.87458e-07
-9.03429e-06
-5.80447e-07
-8.46474e-06
-5.69548e-07
-7.90968e-06
-5.55063e-07
-7.37187e-06
-5.3781e-07
-6.85298e-06
-5.1889e-07
-6.35368e-06
-4.993e-07
-5.87372e-06
-4.79959e-07
-5.4121e-06
-4.61619e-07
-4.96735e-06
-4.44748e-07
-4.53776e-06
-4.29589e-07
-4.12154e-06
-4.16225e-07
-3.71702e-06
-4.04516e-07
-3.32289e-06
-3.94138e-07
-2.93829e-06
-3.84597e-07
-2.56305e-06
-3.75243e-07
-2.19766e-06
-3.65389e-07
-1.84317e-06
-3.54489e-07
-1.50027e-06
-3.42898e-07
-1.16817e-06
-3.321e-07
-8.45153e-07
-3.23016e-07
-5.30044e-07
-3.15109e-07
-2.21494e-07
-3.08549e-07
7.75182e-08
-2.99013e-07
3.70124e-07
-2.92605e-07
6.63392e-07
-2.93269e-07
9.66018e-07
-3.02626e-07
1.28369e-06
-3.17674e-07
1.61839e-06
-3.34697e-07
1.96885e-06
-3.50461e-07
2.33063e-06
-3.61781e-07
2.69722e-06
-3.66592e-07
3.06267e-06
-3.65447e-07
3.42363e-06
-3.6096e-07
3.77718e-06
-3.53553e-07
4.11192e-06
-3.34741e-07
4.39885e-06
-2.86926e-07
4.60082e-06
-2.01974e-07
4.71074e-06
-1.0992e-07
4.7878e-06
-7.70576e-08
4.93164e-06
-1.43836e-07
5.17044e-06
-2.38805e-07
5.36196e-06
-1.91517e-07
5.30487e-06
5.70927e-08
4.96747e-06
3.37394e-07
4.5249e-06
4.42571e-07
4.23764e-06
2.87263e-07
4.29348e-06
-5.58409e-08
4.55924e-06
-2.65764e-07
4.56129e-06
-2.04572e-09
4.04843e-06
5.12864e-07
3.29577e-06
7.52653e-07
2.68841e-06
6.07362e-07
2.39093e-06
2.9748e-07
2.33589e-06
5.50451e-08
2.3755e-06
-3.96164e-08
2.40137e-06
-2.58675e-08
2.37191e-06
2.94609e-08
2.28889e-06
8.3023e-08
2.18746e-06
1.01423e-07
2.09067e-06
9.67974e-08
2.02215e-06
6.85152e-08
1.93532e-06
8.68268e-08
1.51665e-07
1.78366e-06
-2.55048e-08
1.96869e-07
-9.00259e-08
2.21548e-07
-4.26373e-08
9.08918e-08
2.86292e-07
-2.79146e-07
8.66268e-07
-7.29713e-07
1.57174e-06
-1.08797e-06
2.31089e-06
-1.30701e-06
3.03211e-06
-1.39623e-06
3.70509e-06
-1.38696e-06
4.3151e-06
-1.31178e-06
4.85608e-06
-1.19619e-06
5.32645e-06
-1.05793e-06
5.72648e-06
-9.08525e-07
6.05743e-06
-7.55018e-07
6.32111e-06
-6.01451e-07
6.51924e-06
-4.49702e-07
6.65384e-06
-3.00802e-07
6.72682e-06
-1.55039e-07
6.74246e-06
-1.37079e-08
6.70662e-06
1.21774e-07
6.62113e-06
2.53651e-07
6.48643e-06
3.82072e-07
6.30259e-06
5.06302e-07
6.06994e-06
6.25088e-07
5.78851e-06
7.36831e-07
5.45736e-06
8.39109e-07
5.07396e-06
9.27648e-07
4.63423e-06
9.96142e-07
4.13497e-06
1.03697e-06
3.58291e-06
1.04336e-06
3.00532e-06
1.00898e-06
2.44652e-06
9.33365e-07
1.94649e-06
8.30087e-07
1.52289e-06
7.24576e-07
1.17009e-06
6.32947e-07
8.55068e-07
5.5403e-07
5.13366e-07
4.83381e-07
1.1743e-07
4.38998e-07
-2.9848e-07
4.16414e-07
-6.50557e-07
3.4841e-07
-8.63768e-07
2.58434e-07
-9.13435e-07
2.46802e-07
-8.53776e-07
2.25518e-07
-7.10776e-07
5.67099e-08
-5.1662e-07
-1.47497e-07
-2.80423e-07
-3.19117e-07
8.8982e-09
-5.10367e-07
3.42716e-07
-6.53561e-07
7.15944e-07
-7.50456e-07
1.12224e-06
-8.24525e-07
1.54279e-06
-8.69754e-07
1.96331e-06
-8.91453e-07
2.37964e-06
-9.00506e-07
2.79417e-06
-8.96349e-07
3.20569e-06
-8.85466e-07
3.60316e-06
-8.61488e-07
3.99011e-06
-8.35053e-07
4.36014e-06
-7.80979e-07
4.7014e-06
-6.93115e-07
5.00052e-06
-5.88229e-07
5.24514e-06
-4.61577e-07
5.4175e-06
-2.89812e-07
5.5104e-06
-9.8145e-08
5.54562e-06
6.22891e-08
5.51354e-06
2.23855e-07
5.36649e-06
4.16096e-07
5.1203e-06
5.4879e-07
4.84635e-06
5.46819e-07
4.58675e-06
4.34902e-07
4.35237e-06
2.96361e-07
4.15184e-06
2.20169e-07
3.98091e-06
2.0286e-07
3.80216e-06
2.60689e-07
3.68922e-06
2.99131e-07
3.84507e-06
-8.19474e-09
4.23537e-06
-5.32219e-07
4.63384e-06
-8.53694e-07
4.90822e-06
-8.15289e-07
4.95963e-06
-4.59225e-07
4.72793e-06
-2.17718e-09
4.2475e-06
4.58471e-07
3.5785e-06
9.47946e-07
2.75146e-06
1.42119e-06
1.78949e-06
1.84843e-06
7.71706e-07
2.13795e-06
-1.76415e-07
2.07723e-06
-1.05391e-06
1.73053e-06
-2.19345e-06
1.56676e-06
-4.42177e-06
2.52421e-06
-7.68939e-06
4.5001e-06
-1.03555e-05
5.33428e-06
-1.14429e-05
4.32182e-06
-1.2162e-05
2.99963e-06
-1.27991e-05
2.19397e-06
-1.3108e-05
1.51213e-06
-1.34193e-05
9.8285e-07
-1.36558e-05
7.60169e-07
-1.38281e-05
5.2299e-07
-1.40023e-05
4.23442e-07
-1.41279e-05
3.50406e-07
-1.42338e-05
2.47369e-07
-1.42995e-05
1.70817e-07
-1.43034e-05
3.49334e-08
-1.42458e-05
-1.1006e-07
-1.41085e-05
-2.62002e-07
-1.38897e-05
-4.30735e-07
-1.35904e-05
-5.8872e-07
-1.32148e-05
-7.39198e-07
-1.27769e-05
-8.66213e-07
-1.22906e-05
-9.63339e-07
-1.17677e-05
-1.042e-06
-1.12171e-05
-1.10094e-06
-1.06481e-05
-1.13839e-06
-1.00695e-05
-1.15974e-06
-9.4871e-06
-1.17038e-06
-8.90461e-06
-1.17255e-06
-8.32649e-06
-1.16557e-06
-7.75761e-06
-1.14933e-06
-7.20205e-06
-1.12511e-06
-6.66356e-06
-1.09355e-06
-6.14497e-06
-1.0564e-06
-5.64772e-06
-1.01614e-06
-5.17209e-06
-9.74931e-07
-4.7174e-06
-9.34644e-07
-4.2823e-06
-8.96719e-07
-3.86503e-06
-8.6202e-07
-3.46365e-06
-8.30966e-07
-3.07619e-06
-8.03687e-07
-2.70077e-06
-7.79935e-07
-2.33581e-06
-7.591e-07
-1.98015e-06
-7.40256e-07
-1.63307e-06
-7.22325e-07
-1.29431e-06
-7.04144e-07
-9.64099e-07
-6.84704e-07
-6.42688e-07
-6.64309e-07
-3.30844e-07
-6.43944e-07
-3.08053e-08
-6.23055e-07
2.55869e-07
-6.01783e-07
5.30752e-07
-5.83433e-07
7.99532e-07
-5.67793e-07
1.06652e-06
-5.59597e-07
1.33664e-06
-5.63386e-07
1.61421e-06
-5.80193e-07
1.90304e-06
-6.06508e-07
2.20515e-06
-6.36801e-07
2.51969e-06
-6.65001e-07
2.84261e-06
-6.84709e-07
3.16712e-06
-6.91095e-07
3.48617e-06
-6.84498e-07
3.79733e-06
-6.72126e-07
4.1046e-06
-6.60819e-07
4.41079e-06
-6.40926e-07
4.7046e-06
-5.80736e-07
4.95567e-06
-4.5305e-07
5.12363e-06
-2.77879e-07
5.18265e-06
-1.36074e-07
5.16706e-06
-1.28253e-07
5.20201e-06
-2.73757e-07
5.42608e-06
-4.1558e-07
5.80574e-06
-3.22574e-07
6.12505e-06
1.80901e-08
6.20839e-06
3.5923e-07
5.9974e-06
4.98256e-07
5.53552e-06
4.06034e-07
5.11082e-06
1.58937e-07
5.09527e-06
1.35015e-08
5.45827e-06
1.49863e-07
5.80472e-06
4.06207e-07
5.79107e-06
6.2101e-07
5.3852e-06
7.03348e-07
4.85026e-06
5.8999e-07
4.43171e-06
3.78934e-07
4.14724e-06
2.58603e-07
3.89664e-06
2.80058e-07
3.62749e-06
3.52175e-07
3.36862e-06
3.60293e-07
3.16841e-06
2.97008e-07
3.04404e-06
1.92886e-07
2.94856e-06
1.82307e-07
2.43953e-07
2.85627e-06
3.25062e-08
1.64362e-07
1.36851e-07
1.17203e-07
6.81686e-07
-4.53943e-07
1.52936e-06
-1.12682e-06
2.41263e-06
-1.61298e-06
3.2022e-06
-1.87754e-06
3.86055e-06
-1.96536e-06
4.39418e-06
-1.92987e-06
4.82557e-06
-1.81835e-06
5.17948e-06
-1.66569e-06
5.4767e-06
-1.49341e-06
5.73134e-06
-1.31257e-06
5.95149e-06
-1.12867e-06
6.14118e-06
-9.44708e-07
6.30233e-06
-7.62604e-07
6.43564e-06
-5.83011e-07
6.54061e-06
-4.05772e-07
6.616e-06
-2.30429e-07
6.65917e-06
-5.68797e-08
6.66794e-06
1.13008e-07
6.64213e-06
2.79456e-07
6.58235e-06
4.41852e-07
6.4889e-06
5.99749e-07
6.3614e-06
7.52589e-07
6.19855e-06
8.99684e-07
5.99757e-06
1.04009e-06
5.75391e-06
1.17131e-06
5.46149e-06
1.28856e-06
5.1145e-06
1.38396e-06
4.71067e-06
1.4472e-06
4.25321e-06
1.46643e-06
3.75503e-06
1.43155e-06
3.24513e-06
1.33999e-06
2.7656e-06
1.20411e-06
2.35037e-06
1.04817e-06
2.00232e-06
9.0208e-07
1.69442e-06
7.9128e-07
1.41285e-06
7.2057e-07
1.15653e-06
6.72736e-07
8.9618e-07
6.0876e-07
6.41488e-07
5.13126e-07
4.96857e-07
3.91432e-07
4.99581e-07
2.22795e-07
5.58501e-07
-2.21084e-09
6.54529e-07
-2.43525e-07
8.24516e-07
-4.89104e-07
1.01819e-06
-7.04043e-07
1.24786e-06
-8.83227e-07
1.49695e-06
-9.99546e-07
1.74079e-06
-1.06837e-06
1.97027e-06
-1.09923e-06
2.18647e-06
-1.10765e-06
2.39326e-06
-1.1073e-06
2.60725e-06
-1.11034e-06
2.83145e-06
-1.10966e-06
3.06598e-06
-1.09602e-06
3.32484e-06
-1.09392e-06
3.59419e-06
-1.05033e-06
3.88449e-06
-9.83417e-07
4.18314e-06
-8.86874e-07
4.46185e-06
-7.40287e-07
4.70087e-06
-5.28836e-07
4.87705e-06
-2.74322e-07
4.99549e-06
-5.61486e-08
5.09657e-06
1.22768e-07
5.15845e-06
3.54217e-07
5.10309e-06
6.04154e-07
4.93216e-06
7.17748e-07
4.67394e-06
6.93119e-07
4.28324e-06
6.87068e-07
3.81516e-06
6.88247e-07
3.47182e-06
5.46195e-07
3.42904e-06
3.03475e-07
3.73919e-06
-1.10178e-08
4.13831e-06
-4.07317e-07
4.2505e-06
-6.44414e-07
3.96417e-06
-5.6736e-07
3.48519e-06
-3.36312e-07
3.06861e-06
-4.26443e-08
2.79516e-06
2.7127e-07
2.54989e-06
7.03745e-07
2.15457e-06
1.34326e-06
1.54098e-06
2.03478e-06
7.68414e-07
2.62099e-06
-1.02582e-07
3.00895e-06
-1.11682e-06
3.09147e-06
-2.47335e-06
3.08706e-06
-4.6166e-06
3.71001e-06
-7.56758e-06
5.47519e-06
-9.93655e-06
6.86906e-06
-1.07506e-05
6.14834e-06
-1.07429e-05
4.31409e-06
-1.09026e-05
3.15937e-06
-1.10712e-05
2.36252e-06
-1.11736e-05
1.61456e-06
-1.13922e-05
1.20146e-06
-1.15727e-05
9.40635e-07
-1.17772e-05
7.27485e-07
-1.20037e-05
6.49958e-07
-1.22173e-05
5.63985e-07
-1.24318e-05
4.61953e-07
-1.25986e-05
3.37575e-07
-1.26972e-05
1.33561e-07
-1.27097e-05
-9.75386e-08
-1.26245e-05
-3.4727e-07
-1.24455e-05
-6.09719e-07
-1.21681e-05
-8.66126e-07
-1.18004e-05
-1.1069e-06
-1.13628e-05
-1.30383e-06
-1.08711e-05
-1.45499e-06
-1.03367e-05
-1.57642e-06
-9.77145e-06
-1.66619e-06
-9.18844e-06
-1.7214e-06
-8.59725e-06
-1.75093e-06
-8.00322e-06
-1.76441e-06
-7.40982e-06
-1.76595e-06
-6.82138e-06
-1.75401e-06
-6.24369e-06
-1.72702e-06
-5.68178e-06
-1.68702e-06
-5.14065e-06
-1.63468e-06
-4.62449e-06
-1.57256e-06
-4.1356e-06
-1.50504e-06
-3.67466e-06
-1.43587e-06
-3.24086e-06
-1.36845e-06
-2.8323e-06
-1.30528e-06
-2.44652e-06
-1.2478e-06
-2.08078e-06
-1.1967e-06
-1.73235e-06
-1.15212e-06
-1.39857e-06
-1.11372e-06
-1.07695e-06
-1.08072e-06
-7.65616e-07
-1.05159e-06
-4.62997e-07
-1.02494e-06
-1.68147e-07
-9.98994e-07
1.18769e-07
-9.71619e-07
3.9646e-07
-9.42e-07
6.61961e-07
-9.09446e-07
9.1283e-07
-8.73924e-07
1.15062e-06
-8.39569e-07
1.37891e-06
-8.11729e-07
1.60417e-06
-7.93053e-07
1.83127e-06
-7.8669e-07
2.06402e-06
-7.96143e-07
2.30605e-06
-8.22221e-07
2.56065e-06
-8.61108e-07
2.8283e-06
-9.04448e-07
3.10522e-06
-9.4192e-07
3.38453e-06
-9.6402e-07
3.65772e-06
-9.64283e-07
3.91519e-06
-9.41968e-07
4.14953e-06
-9.06467e-07
4.36427e-06
-8.75558e-07
4.57649e-06
-8.53144e-07
4.79794e-06
-8.02193e-07
5.00831e-06
-6.6342e-07
5.15811e-06
-4.27677e-07
5.20727e-06
-1.85235e-07
5.16263e-06
-8.36125e-08
5.09652e-06
-2.07646e-07
5.13873e-06
-4.57785e-07
5.38743e-06
-5.71275e-07
5.77762e-06
-3.72103e-07
6.09515e-06
4.16984e-08
6.11683e-06
4.7658e-07
5.74435e-06
7.78515e-07
5.17616e-06
7.27129e-07
4.90118e-06
2.88475e-07
5.21803e-06
-1.66979e-07
5.89439e-06
-2.70157e-07
6.44446e-06
7.09364e-08
6.52716e-06
6.20648e-07
6.1514e-06
9.65749e-07
5.57962e-06
9.50716e-07
5.03802e-06
8.00203e-07
4.57495e-06
7.43126e-07
4.16945e-06
7.57682e-07
3.83331e-06
6.96432e-07
3.59972e-06
5.30593e-07
3.46541e-06
3.27199e-07
3.38906e-06
2.58654e-07
3.01545e-07
3.33147e-06
9.96057e-09
1.54402e-07
7.1418e-07
-5.87016e-07
1.78341e-06
-1.52317e-06
2.74456e-06
-2.08798e-06
3.44893e-06
-2.31735e-06
3.90323e-06
-2.33184e-06
4.1672e-06
-2.22932e-06
4.31314e-06
-2.07581e-06
4.40299e-06
-1.90819e-06
4.47829e-06
-1.741e-06
4.55991e-06
-1.57502e-06
4.65346e-06
-1.40613e-06
4.75673e-06
-1.23193e-06
4.8655e-06
-1.05348e-06
4.97602e-06
-8.7312e-07
5.08507e-06
-6.92063e-07
5.18923e-06
-5.09928e-07
5.28526e-06
-3.26465e-07
5.37038e-06
-1.42e-07
5.44063e-06
4.27632e-08
5.49448e-06
2.256e-07
5.53213e-06
4.04209e-07
5.55372e-06
5.78162e-07
5.55764e-06
7.48663e-07
5.53967e-06
9.17656e-07
5.49356e-06
1.0862e-06
5.4117e-06
1.25317e-06
5.28531e-06
1.41495e-06
5.10534e-06
1.56393e-06
4.86457e-06
1.68796e-06
4.55962e-06
1.77139e-06
4.19361e-06
1.79756e-06
3.78102e-06
1.75258e-06
3.35137e-06
1.63376e-06
2.93936e-06
1.46017e-06
2.56932e-06
1.27212e-06
2.2515e-06
1.1091e-06
1.98913e-06
9.82947e-07
1.77856e-06
8.833e-07
1.6009e-06
7.86428e-07
1.45012e-06
6.63901e-07
1.34585e-06
4.95701e-07
1.29394e-06
2.74708e-07
1.28108e-06
1.06482e-08
1.29833e-06
-2.60775e-07
1.33616e-06
-5.26932e-07
1.36822e-06
-7.3611e-07
1.38135e-06
-8.96356e-07
1.36251e-06
-9.80701e-07
1.3107e-06
-1.01656e-06
1.23524e-06
-1.02378e-06
1.16614e-06
-1.03855e-06
1.12754e-06
-1.06869e-06
1.12624e-06
-1.10904e-06
1.15916e-06
-1.14259e-06
1.25131e-06
-1.18816e-06
1.39939e-06
-1.24199e-06
1.58176e-06
-1.2327e-06
1.81876e-06
-1.22042e-06
2.08734e-06
-1.15545e-06
2.3538e-06
-1.00675e-06
2.62009e-06
-7.95128e-07
2.89239e-06
-5.46625e-07
3.13708e-06
-3.00836e-07
3.30854e-06
-4.86933e-08
3.40901e-06
2.53749e-07
3.45424e-06
5.58927e-07
3.41793e-06
7.54053e-07
3.27736e-06
8.33689e-07
3.11265e-06
8.51778e-07
3.03421e-06
7.66688e-07
3.02815e-06
5.52252e-07
3.0306e-06
3.01025e-07
2.92307e-06
9.65116e-08
2.53869e-06
-2.29337e-08
2.00682e-06
-1.12544e-07
1.70952e-06
-2.70062e-07
1.86449e-06
-4.91279e-07
2.29874e-06
-4.76896e-07
2.6041e-06
-3.40921e-08
2.53348e-06
7.74373e-07
2.09685e-06
1.77989e-06
1.33833e-06
2.79329e-06
3.35164e-07
3.62416e-06
-8.81196e-07
4.22531e-06
-2.33484e-06
4.54511e-06
-4.18377e-06
4.936e-06
-6.67253e-06
6.19877e-06
-9.02498e-06
7.82765e-06
-9.96388e-06
7.80796e-06
-9.71122e-06
5.89568e-06
-9.56995e-06
4.17282e-06
-9.65821e-06
3.24763e-06
-9.63878e-06
2.34309e-06
-9.73092e-06
1.70669e-06
-9.91024e-06
1.38078e-06
-1.01041e-05
1.1345e-06
-1.03967e-05
1.02012e-06
-1.07325e-05
9.85672e-07
-1.11108e-05
9.42362e-07
-1.15057e-05
8.56806e-07
-1.18321e-05
6.64038e-07
-1.20563e-05
3.57706e-07
-1.21566e-05
2.7959e-09
-1.21367e-05
-3.672e-07
-1.20002e-05
-7.46166e-07
-1.17381e-05
-1.12832e-06
-1.13666e-05
-1.47839e-06
-1.09159e-05
-1.75452e-06
-1.04068e-05
-1.9641e-06
-9.85285e-06
-2.13033e-06
-9.26826e-06
-2.25078e-06
-8.66708e-06
-2.32258e-06
-8.0574e-06
-2.3606e-06
-7.4435e-06
-2.37832e-06
-6.82802e-06
-2.38143e-06
-6.2133e-06
-2.36873e-06
-5.60474e-06
-2.33557e-06
-5.00852e-06
-2.28324e-06
-4.4317e-06
-2.2115e-06
-3.88072e-06
-2.12354e-06
-3.36001e-06
-2.02575e-06
-2.87185e-06
-1.92403e-06
-2.41645e-06
-1.82385e-06
-1.9925e-06
-1.72923e-06
-1.59784e-06
-1.64246e-06
-1.22989e-06
-1.56465e-06
-8.86013e-07
-1.496e-06
-5.63302e-07
-1.43643e-06
-2.58311e-07
-1.38571e-06
3.24715e-08