/*--------------------------------*- C++ -*----------------------------------*\
  =========                 |
  \\      /  F ield         | OpenFOAM: The Open Source CFD Toolbox
   \\    /   O peration     | Website:  https://openfoam.org
    \\  /    A nd           | Version:  6
     \\/     M anipulation  |
\*---------------------------------------------------------------------------*/
FoamFile
{
    version     2.0;
    format      ascii;
    class       volScalarField;
    location    "0.4";
    object      pMean;
}
// * * * * * * * * * * * * * * * * * * * * * * * * * * * * * * * * * * * * * //

dimensions      [0 2 -2 0 0 0 0];

internalField   nonuniform List<scalar> 
12225
(
1.86911
1.33406
0.972824
0.795961
0.709066
0.645187
0.583234
0.525357
0.477566
0.443233
0.422776
0.416303
0.423097
0.443042
0.472026
0.500327
0.50258
0.41372
1.73431
1.29562
0.956461
0.780782
0.693578
0.630908
0.570431
0.513417
0.465793
0.431121
0.409838
0.401951
0.406365
0.422653
0.445876
0.467092
0.461745
0.392357
1.60473
1.26351
0.956141
0.779104
0.687635
0.624272
0.56448
0.507501
0.45897
0.42254
0.398914
0.387425
0.386968
0.39534
0.408126
0.414445
0.397103
0.328014
1.49133
1.22883
0.955559
0.776897
0.678731
0.613323
0.55398
0.497073
0.447421
0.408865
0.382221
0.366491
0.359958
0.359551
0.360298
0.352003
0.321427
0.248275
1.3873
1.18584
0.94703
0.770388
0.666136
0.59844
0.539835
0.483549
0.433132
0.392489
0.362637
0.342377
0.329441
0.320303
0.309681
0.2891
0.247929
0.174418
1.28709
1.13441
0.929658
0.760234
0.652103
0.58201
0.523928
0.468408
0.417349
0.374479
0.341051
0.31583
0.29622
0.278512
0.257662
0.226918
0.178544
0.106581
1.19368
1.07812
0.90495
0.74685
0.637227
0.564414
0.505989
0.450839
0.398997
0.353689
0.316333
0.285824
0.259465
0.233632
0.203807
0.164855
0.111523
0.0406596
1.11319
1.02138
0.875402
0.730784
0.621756
0.546018
0.486189
0.430729
0.377868
0.32997
0.288476
0.252502
0.219486
0.186066
0.148398
0.102629
0.045208
-0.0259619
1.04038
0.964453
0.841425
0.711018
0.604595
0.526453
0.464627
0.408304
0.354259
0.303786
0.258163
0.216773
0.17736
0.136956
0.0923683
0.0406726
-0.02071
-0.0933912
0.962741
0.904169
0.800813
0.684409
0.582488
0.503128
0.439247
0.381636
0.326212
0.273205
0.223572
0.176941
0.131475
0.0846623
0.033885
-0.0231346
-0.088292
-0.162726
0.890939
0.845434
0.757979
0.654356
0.558024
0.478548
0.412673
0.353268
0.296071
0.240426
0.186871
0.135193
0.0839809
0.0312109
-0.0252588
-0.0871853
-0.156009
-0.232392
0.834269
0.794438
0.717597
0.624033
0.533182
0.454434
0.386934
0.325536
0.266334
0.208155
0.151127
0.09509
0.0389781
-0.0188145
-0.0800347
-0.146069
-0.218036
-0.296374
0.780884
0.744777
0.675727
0.590663
0.505164
0.427646
0.358808
0.295308
0.233894
0.173132
0.112797
0.0527067
-0.00792363
-0.0703276
-0.13588
-0.20567
-0.280515
-0.360704
0.725454
0.6907
0.627986
0.550803
0.47087
0.395107
0.325166
0.259335
0.19524
0.131447
0.0674642
0.00305673
-0.0623275
-0.129551
-0.199624
-0.273338
-0.351324
-0.433762
0.66389
0.630875
0.57369
0.503438
0.428679
0.354802
0.283885
0.215498
0.148223
0.0808754
0.0128587
-0.0561132
-0.126405
-0.198567
-0.273252
-0.351004
-0.432221
-0.517073
0.594829
0.565477
0.514105
0.449799
0.379348
0.307168
0.235443
0.164549
0.0938722
0.0226383
-0.049669
-0.123307
-0.198498
-0.275527
-0.35477
-0.436538
-0.521098
-0.608464
0.516919
0.494977
0.449372
0.389491
0.321893
0.250558
0.177712
0.10421
0.0300204
-0.0452313
-0.121886
-0.200109
-0.279987
-0.361596
-0.44509
-0.530567
-0.618171
-0.70787
0.453223
0.432891
0.389854
0.33173
0.26456
0.192279
0.117235
0.0405389
-0.0375378
-0.117089
-0.198241
-0.281005
-0.365328
-0.451141
-0.538435
-0.62718
-0.717399
-0.809013
0.412995
0.389086
0.343974
0.283784
0.213814
0.138076
0.0591717
-0.0216295
-0.104013
-0.188036
-0.273708
-0.360877
-0.449332
-0.538886
-0.629425
-0.720852
-0.813088
-0.905975
0.396306
0.372012
0.322739
0.25661
0.180774
0.100116
0.0172061
-0.0671471
-0.153005
-0.240527
-0.329617
-0.419958
-0.51121
-0.603128
-0.695577
-0.788453
-0.881663
-0.975079
0.407604
0.380466
0.324277
0.250141
0.167259
0.0814154
-0.00508469
-0.0922558
-0.180789
-0.271
-0.362651
-0.455242
-0.548356
-0.641759
-0.735353
-0.829049
-0.922753
-1.01631
0.448744
0.411164
0.342974
0.257257
0.165464
0.0741542
-0.0154591
-0.104996
-0.196013
-0.28882
-0.382835
-0.477336
-0.571895
-0.66637
-0.760743
-0.854965
-0.948943
-1.04251
0.501211
0.452382
0.369107
0.269024
0.167581
0.0716466
-0.0200306
-0.111354
-0.204595
-0.299713
-0.395667
-0.491595
-0.587169
-0.682385
-0.777289
-0.871835
-0.965911
-1.05936
0.556477
0.498383
0.397725
0.281182
0.170588
0.0716828
-0.0209553
-0.113716
-0.209022
-0.306117
-0.403517
-0.500373
-0.596558
-0.69222
-0.787452
-0.882193
-0.976292
-1.06958
0.620474
0.548422
0.425668
0.292134
0.174862
0.0749368
-0.0183307
-0.112894
-0.210408
-0.309239
-0.40769
-0.505132
-0.601684
-0.697608
-0.793013
-0.887827
-0.981902
-1.07503
0.696252
0.599274
0.447672
0.299264
0.179701
0.0806872
-0.0133845
-0.110278
-0.210097
-0.310438
-0.409694
-0.507581
-0.604444
-0.700599
-0.796127
-0.890945
-0.984921
-1.07793
0.790751
0.647953
0.459982
0.301252
0.184305
0.0877628
-0.00715014
-0.106348
-0.208113
-0.309586
-0.409463
-0.507801
-0.605091
-0.701624
-0.797432
-0.892393
-0.986388
-1.07927
0.909147
0.692757
0.46309
0.298647
0.187053
0.0934666
-0.00192154
-0.102519
-0.205125
-0.306775
-0.40655
-0.504779
-0.602018
-0.698502
-0.7942
-0.888923
-0.982651
-1.07573
1.04068
0.732152
0.46242
0.293917
0.18584
0.0932849
-0.00329442
-0.105275
-0.208596
-0.31041
-0.410156
-0.508349
-0.605599
-0.702066
-0.797742
-0.892278
-0.985524
-1.07688
1.17424
0.774456
0.478997
0.307228
0.199368
0.105839
0.00750585
-0.0960389
-0.200423
-0.302923
-0.403182
-0.501807
-0.599457
-0.696243
-0.792212
-0.886893
-0.980401
-1.07191
-3.66013
-3.69955
-3.74577
-3.76865
-3.7517
-3.70299
-3.66134
-3.6732
-3.77324
-3.97468
-4.26846
-4.62943
-5.02482
-5.4225
-5.79589
-6.12539
-6.39819
-6.60774
-6.7528
-6.83636
-6.8645
-6.84728
-6.79571
-6.71947
-6.62936
-6.539
-6.46564
-6.4227
-6.41408
-6.44151
-6.51024
-6.62532
-6.79022
-6.99866
-7.23465
-7.48908
-7.76381
-8.06285
-8.38947
-8.7465
-9.13363
-9.54475
-9.96608
-10.3771
-10.7608
-11.1151
-11.4435
-11.7368
-11.9765
-12.1748
-12.355
-12.5204
-12.6544
-12.7419
-12.7887
-12.8172
-12.8461
-12.8813
-12.9138
-12.9449
-12.9929
-13.0612
-13.153
-13.2626
-13.3794
-13.5083
-13.653
-13.8005
-13.9335
-14.0412
-14.1135
-14.1401
-14.1306
-14.1129
-14.1011
-14.0883
-14.0596
-14.0148
-13.9587
-13.8863
-13.7822
-13.6371
-13.4475
-13.2217
-12.9689
-12.6798
-12.3492
-11.9904
-11.6224
-11.2365
-10.8278
-10.4287
-10.0616
-9.73215
-9.46681
-9.25526
-9.04028
-8.76022
-8.36605
-7.83145
-7.14197
-6.30014
-5.37231
-4.44173
-3.5376
-2.65136
-1.84359
-1.21985
-0.756213
-0.374834
-0.016503
0.368806
0.811551
1.32708
1.91698
2.57786
3.30812
4.10629
4.96317
5.8617
6.77819
7.69522
8.60447
9.46334
10.217
10.8686
11.4376
11.9311
12.3624
12.7644
13.1747
13.5989
14.03
14.4154
14.6302
14.6309
14.5039
14.2973
14.032
13.7915
13.6448
13.6075
13.6782
13.8387
14.0508
14.2894
14.5671
14.9089
15.3214
15.7905
16.2911
16.8006
17.3006
17.7739
18.1905
18.4983
18.6535
18.6672
18.5942
18.4784
18.3391
18.1827
18.0114
17.8369
17.688
17.5914
17.554
17.5689
17.623
17.6969
17.7635
17.7944
17.7756
17.7147
17.6345
17.5579
17.507
17.5004
17.5741
17.6874
-3.87717
-3.92549
-3.99374
-4.0523
-4.08289
-4.09821
-4.13495
-4.23035
-4.40604
-4.66353
-4.98784
-5.35438
-5.73502
-6.1039
-6.44156
-6.7342
-6.97186
-7.14968
-7.26827
-7.33194
-7.34667
-7.32034
-7.26364
-7.18794
-7.10395
-7.02343
-6.96065
-6.92858
-6.93272
-6.97465
-7.06432
-7.20945
-7.40263
-7.6362
-7.89803
-8.175
-8.47317
-8.79301
-9.13126
-9.4929
-9.87613
-10.2741
-10.6769
-11.0728
-11.4496
-11.8001
-12.1284
-12.4297
-12.688
-12.9014
-13.0837
-13.2359
-13.3558
-13.4403
-13.493
-13.5257
-13.5508
-13.5785
-13.6078
-13.6419
-13.6947
-13.7726
-13.8723
-13.9889
-14.1156
-14.2519
-14.3923
-14.5205
-14.624
-14.6963
-14.7373
-14.7456
-14.7341
-14.7258
-14.73
-14.7349
-14.7174
-14.68
-14.6267
-14.5429
-14.4118
-14.2354
-14.0208
-13.7712
-13.5022
-13.2034
-12.8694
-12.5037
-12.123
-11.7383
-11.3493
-10.9719
-10.6309
-10.3349
-10.0962
-9.8898
-9.66068
-9.35714
-8.93587
-8.3693
-7.6528
-6.79946
-5.87334
-4.9439
-4.0422
-3.19329
-2.45308
-1.87797
-1.41347
-1.00125
-0.600039
-0.170431
0.314873
0.868454
1.49205
2.18408
2.94524
3.77299
4.65629
5.57678
6.51298
7.43584
8.32959
9.16884
9.91734
10.579
11.1606
11.6665
12.1086
12.5202
12.9388
13.3696
13.7793
14.0965
14.2434
14.2245
14.1024
13.9041
13.6668
13.4696
13.3593
13.3482
13.4341
13.5959
13.8
14.0349
14.32
14.673
15.0958
15.574
16.0844
16.6045
17.1151
17.5941
18.0027
18.2899
18.431
18.4508
18.3955
18.2953
18.1649
18.01
17.8368
17.6632
17.5206
17.4311
17.3991
17.4185
17.4756
17.5494
17.6133
17.6397
17.6176
17.5546
17.4727
17.39
17.3287
17.299
17.3381
17.3836
-4.01493
-4.06004
-4.15138
-4.27975
-4.43318
-4.61232
-4.82944
-5.09439
-5.40677
-5.7565
-6.12706
-6.50023
-6.85891
-7.18837
-7.47779
-7.72017
-7.9111
-8.04978
-8.13825
-8.18026
-8.18162
-8.14824
-8.08748
-8.00962
-7.92735
-7.85367
-7.79858
-7.77189
-7.78393
-7.84149
-7.95094
-8.11662
-8.32996
-8.58413
-8.87303
-9.18346
-9.51169
-9.85822
-10.221
-10.6
-10.9893
-11.3812
-11.7695
-12.1514
-12.5292
-12.8969
-13.2427
-13.5548
-13.8285
-14.0584
-14.2473
-14.3966
-14.5082
-14.5896
-14.6451
-14.6811
-14.7021
-14.714
-14.7289
-14.76
-14.8161
-14.9021
-15.0124
-15.1408
-15.2791
-15.4164
-15.5379
-15.632
-15.6957
-15.7316
-15.7466
-15.7492
-15.7531
-15.7653
-15.7804
-15.787
-15.7734
-15.7404
-15.6781
-15.567
-15.4033
-15.1928
-14.9452
-14.6666
-14.3745
-14.0651
-13.7315
-13.3709
-12.9912
-12.6116
-12.2459
-11.9031
-11.6018
-11.3492
-11.1349
-10.9234
-10.6682
-10.3259
-9.86181
-9.25887
-8.52049
-7.66967
-6.75469
-5.83508
-4.95832
-4.17337
-3.50861
-2.95414
-2.46345
-2.0023
-1.5385
-1.04558
-0.502157
0.102821
0.773636
1.51295
2.32219
3.19533
4.11842
5.071
6.02337
6.94446
7.81903
8.63794
9.38911
10.0668
10.6657
11.1874
11.6449
12.0749
12.5084
12.9307
13.2782
13.49
13.5631
13.5315
13.4132
13.2323
13.045
12.9047
12.8396
12.8638
12.9721
13.1395
13.3403
13.5811
13.881
14.2495
14.6861
15.1787
15.7057
16.2434
16.7689
17.2522
17.6457
17.9074
18.0392
18.0741
18.0422
17.961
17.8403
17.6872
17.5139
17.347
17.2172
17.1414
17.1219
17.1518
17.2151
17.2892
17.3474
17.3665
17.339
17.2714
17.1826
17.087
17.006
16.9483
16.9439
16.9186
-4.1046
-4.16468
-4.32075
-4.57647
-4.90818
-5.28423
-5.68383
-6.09542
-6.50969
-6.91786
-7.31129
-7.68049
-8.017
-8.3144
-8.56863
-8.77745
-8.93991
-9.05755
-9.13342
-9.17102
-9.17396
-9.14702
-9.09707
-9.03406
-8.96775
-8.90747
-8.86367
-8.84605
-8.86378
-8.92615
-9.03972
-9.20589
-9.42154
-9.6805
-9.97573
-10.2986
-10.6444
-11.0123
-11.4004
-11.8009
-12.2085
-12.6176
-13.0215
-13.424
-13.8306
-14.2329
-14.6114
-14.9499
-15.2412
-15.4804
-15.6687
-15.8174
-15.9309
-16.0139
-16.0696
-16.1016
-16.1113
-16.1073
-16.1048
-16.1203
-16.1672
-16.2492
-16.3615
-16.4929
-16.6284
-16.752
-16.8492
-16.9155
-16.9536
-16.9717
-16.9801
-16.988
-17.0018
-17.0199
-17.035
-17.0365
-17.0175
-16.9731
-16.8892
-16.7541
-16.5709
-16.3435
-16.073
-15.7717
-15.4595
-15.1413
-14.8077
-14.4559
-14.0935
-13.7327
-13.3887
-13.0791
-12.8161
-12.5915
-12.3846
-12.1596
-11.8742
-11.4899
-10.9839
-10.3552
-9.61586
-8.78137
-7.88536
-6.99111
-6.16035
-5.42964
-4.79232
-4.22551
-3.70047
-3.19016
-2.66608
-2.10977
-1.50724
-0.848856
-0.126983
0.66368
1.52356
2.44389
3.40755
4.3874
5.34885
6.26626
7.13303
7.94756
8.70382
9.39204
10.0021
10.5329
11.0042
11.4556
11.9006
12.2907
12.5521
12.6788
12.7094
12.6609
12.5386
12.3825
12.2414
12.1485
12.1265
12.1883
12.3247
12.508
12.7204
12.9773
13.2942
13.6777
14.1289
14.6387
15.186
15.7436
16.2834
16.7682
17.1481
17.3959
17.5321
17.5875
17.5784
17.5133
17.4001
17.2489
17.08
16.9245
16.8109
16.7517
16.7472
16.7896
16.8617
16.937
16.9884
16.9985
16.9652
16.8923
16.7926
16.6773
16.5696
16.4854
16.4438
16.3768
-4.26274
-4.38604
-4.66693
-5.07397
-5.55115
-6.05347
-6.55536
-7.04413
-7.51124
-7.95161
-8.36317
-8.74209
-9.08299
-9.38104
-9.63398
-9.84149
-10.0047
-10.1263
-10.2101
-10.2602
-10.2801
-10.2745
-10.2499
-10.2146
-10.1772
-10.1461
-10.1301
-10.1363
-10.1719
-10.2449
-10.3609
-10.521
-10.7233
-10.9653
-11.245
-11.5596
-11.9064
-12.2841
-12.6869
-13.106
-13.5356
-13.9736
-14.4169
-14.8656
-15.3162
-15.7551
-16.1622
-16.5215
-16.8253
-17.0761
-17.2795
-17.4384
-17.5552
-17.6339
-17.6794
-17.694
-17.6807
-17.6531
-17.6287
-17.6231
-17.65
-17.7162
-17.8161
-17.9337
-18.0514
-18.1516
-18.2234
-18.268
-18.2921
-18.3032
-18.3072
-18.3115
-18.3202
-18.3321
-18.3421
-18.3379
-18.3096
-18.2492
-18.147
-18.0007
-17.8133
-17.5824
-17.3061
-17.0003
-16.6842
-16.3635
-16.0311
-15.6916
-15.3482
-15.0067
-14.6878
-14.4122
-14.1772
-13.9644
-13.7518
-13.5043
-13.184
-12.7601
-12.2231
-11.5844
-10.856
-10.0433
-9.17848
-8.329
-7.5498
-6.84979
-6.21115
-5.62198
-5.0623
-4.50418
-3.92335
-3.30698
-2.6466
-1.9338
-1.15913
-0.316787
0.591962
1.55609
2.55409
3.55387
4.52261
5.44287
6.31199
7.1278
7.88548
8.57737
9.19124
9.7251
10.2073
10.6745
11.1158
11.451
11.6343
11.7118
11.7169
11.6481
11.5242
11.393
11.2873
11.2327
11.2504
11.3493
11.5169
11.7246
11.9596
12.2384
12.5736
12.9727
13.4397
13.9681
14.5366
15.1136
15.6651
16.1495
16.5212
16.7679
16.9193
16.9996
17.0149
16.9671
16.8627
16.7158
16.5541
16.4126
16.3164
16.2737
16.2827
16.3358
16.415
16.4906
16.5343
16.5351
16.496
16.4176
16.3055
16.1685
16.0338
15.9257
15.858
15.774
-4.58111
-4.79939
-5.20774
-5.71356
-6.25615
-6.80727
-7.35159
-7.88051
-8.3876
-8.86783
-9.31745
-9.73126
-10.1033
-10.4287
-10.7065
-10.9389
-11.1284
-11.2777
-11.3903
-11.4693
-11.5189
-11.5454
-11.5558
-11.5578
-11.5601
-11.5709
-11.5967
-11.6415
-11.7091
-11.8046
-11.9313
-12.0907
-12.2832
-12.5106
-12.7757
-13.0811
-13.4266
-13.8096
-14.2227
-14.6583
-15.1119
-15.5818
-16.065
-16.5551
-17.0378
-17.4948
-17.9107
-18.2757
-18.5857
-18.845
-19.0587
-19.2235
-19.3379
-19.4033
-19.4247
-19.4086
-19.3654
-19.3105
-19.2598
-19.2278
-19.2278
-19.2692
-19.3451
-19.4358
-19.5224
-19.5894
-19.6304
-19.6503
-19.657
-19.6555
-19.6464
-19.6347
-19.6264
-19.6255
-19.6278
-19.6167
-19.5767
-19.5004
-19.3854
-19.2351
-19.051
-18.8271
-18.5635
-18.2742
-17.9731
-17.6617
-17.3397
-17.0138
-16.6836
-16.3608
-16.0726
-15.8312
-15.6177
-15.4101
-15.1855
-14.911
-14.5556
-14.0987
-13.5424
-12.9025
-12.1872
-11.3992
-10.5756
-9.78093
-9.04956
-8.36826
-7.72308
-7.11235
-6.51809
-5.91249
-5.27693
-4.60248
-3.88438
-3.11572
-2.28718
-1.39394
-0.439511
0.562493
1.58714
2.60201
3.58016
4.50915
5.38461
6.20247
6.95972
7.6514
8.26438
8.79834
9.28618
9.75609
10.1704
10.4409
10.5688
10.62
10.6059
10.5217
10.4045
10.2975
10.2224
10.2021
10.2559
10.3886
10.5861
10.821
11.0829
11.3862
11.7415
12.1578
12.6417
13.1889
13.7776
14.3726
14.9341
15.4186
15.7881
16.0422
16.2139
16.3213
16.3623
16.3331
16.2396
16.1001
15.9492
15.8245
15.7473
15.7212
15.7419
15.802
15.8839
15.9564
15.9921
15.9852
15.9406
15.8555
15.7303
15.573
15.4153
15.2879
15.2042
15.1161
-5.12064
-5.38938
-5.83334
-6.34725
-6.89099
-7.4511
-8.0171
-8.57898
-9.12839
-9.65778
-10.1588
-10.6223
-11.0409
-11.4113
-11.7341
-12.0122
-12.2479
-12.4439
-12.6032
-12.7285
-12.8242
-12.8971
-12.9556
-13.0085
-13.0642
-13.1299
-13.2105
-13.3077
-13.4229
-13.5576
-13.7133
-13.8912
-14.094
-14.3266
-14.5955
-14.9061
-15.2598
-15.6541
-16.0835
-16.5401
-17.0186
-17.5168
-18.0286
-18.5414
-19.0345
-19.4899
-19.8984
-20.2556
-20.5594
-20.8135
-21.0193
-21.1702
-21.2636
-21.3008
-21.2868
-21.2329
-21.1549
-21.0681
-20.9876
-20.9256
-20.8939
-20.9021
-20.9415
-20.9911
-21.0339
-21.0585
-21.0613
-21.0485
-21.0298
-21.0072
-20.9767
-20.9419
-20.9116
-20.8933
-20.8813
-20.8541
-20.7936
-20.6966
-20.5675
-20.4126
-20.2329
-20.0235
-19.785
-19.5259
-19.2524
-18.9639
-18.6636
-18.3546
-18.0392
-17.7409
-17.4898
-17.2839
-17.0927
-16.8919
-16.6571
-16.3583
-15.9735
-15.4923
-14.9234
-14.2822
-13.5768
-12.814
-12.0339
-11.2923
-10.6004
-9.93285
-9.2826
-8.65311
-8.02563
-7.37547
-6.68886
-5.95966
-5.18565
-4.36187
-3.48073
-2.53987
-1.54557
-0.513964
0.529596
1.55765
2.54947
3.49235
4.37746
5.19931
5.95658
6.64584
7.25486
7.78645
8.27194
8.72847
9.09857
9.30909
9.40242
9.43741
9.40751
9.31639
9.2131
9.13081
9.085
9.09682
9.18287
9.34503
9.56876
9.82914
10.1173
10.4447
10.8212
11.2562
11.7578
12.3233
12.9306
13.5419
14.1127
14.5993
14.9715
15.2372
15.4308
15.5654
15.6317
15.6212
15.5397
15.41
15.2728
15.1664
15.1086
15.0992
15.1314
15.1966
15.2779
15.3448
15.3731
15.3616
15.3129
15.2201
15.0825
14.9092
14.7333
14.5905
14.4957
14.4078
-5.7463
-5.99173
-6.38736
-6.86105
-7.38741
-7.94977
-8.53353
-9.1261
-9.71694
-10.296
-10.8522
-11.3737
-11.852
-12.2839
-12.67
-13.0127
-13.3141
-13.5763
-13.8007
-13.9889
-14.1455
-14.2781
-14.396
-14.5094
-14.6271
-14.7552
-14.8969
-15.0533
-15.2242
-15.4096
-15.6101
-15.8278
-16.0671
-16.334
-16.6365
-16.9801
-17.3657
-17.7905
-18.2504
-18.7369
-19.2431
-19.7646
-20.2918
-20.808
-21.2954
-21.7403
-22.1356
-22.4771
-22.7634
-22.9966
-23.1755
-23.2931
-23.3463
-23.3387
-23.2797
-23.183
-23.0636
-22.9362
-22.8151
-22.7117
-22.6365
-22.5978
-22.5853
-22.5799
-22.5684
-22.5427
-22.5007
-22.4488
-22.3988
-22.3495
-22.2928
-22.2314
-22.1743
-22.1284
-22.0873
-22.03
-21.9408
-21.8189
-21.6722
-21.5087
-21.3314
-21.1379
-20.9276
-20.7026
-20.4633
-20.2088
-19.9393
-19.6542
-19.3631
-19.0994
-18.8913
-18.7235
-18.5585
-18.3702
-18.1335
-17.8212
-17.418
-16.9218
-16.3431
-15.6963
-14.994
-14.2505
-13.5059
-12.8048
-12.1411
-11.4843
-10.8324
-10.1888
-9.53413
-8.84784
-8.11897
-7.34302
-6.51925
-5.64513
-4.71623
-3.73357
-2.70611
-1.65122
-0.591594
0.452202
1.46312
2.42433
3.3218
4.14915
4.90648
5.59159
6.19497
6.7219
7.19763
7.62858
7.95002
8.11336
8.18494
8.20751
8.16452
8.07317
7.98715
7.92941
7.91176
7.95338
8.06779
8.2546
8.49965
8.7812
9.09173
9.44098
9.83815
10.2924
10.8122
11.3953
12.0197
12.6452
13.2246
13.7147
14.0923
14.3711
14.5858
14.7461
14.8362
14.8439
14.7754
14.6578
14.5359
14.4474
14.4073
14.4136
14.4566
14.5258
14.605
14.6664
14.6901
14.6777
14.6266
14.5271
14.3804
14.1967
14.0088
13.8543
13.7499
13.6619
-6.23783
-6.43839
-6.78043
-7.22328
-7.73951
-8.30586
-8.90533
-9.52454
-10.1517
-10.7756
-11.3848
-11.9677
-12.5155
-13.0228
-13.4883
-13.9129
-14.2977
-14.6434
-14.9492
-15.2159
-15.4478
-15.6516
-15.8365
-16.0136
-16.1936
-16.3836
-16.5867
-16.8035
-17.0332
-17.2759
-17.5335
-17.8096
-18.1094
-18.4394
-18.8067
-19.2143
-19.6599
-20.1393
-20.6465
-21.1722
-21.7078
-22.2476
-22.7809
-23.2917
-23.7672
-24.1995
-24.581
-24.9032
-25.1641
-25.3662
-25.5072
-25.5801
-25.5841
-25.5244
-25.4126
-25.263
-25.0893
-24.9056
-24.7264
-24.5643
-24.4296
-24.3293
-24.2528
-24.1842
-24.1138
-24.0347
-23.9453
-23.8509
-23.763
-23.6803
-23.592
-23.4985
-23.405
-23.3164
-23.2287
-23.1279
-23.0027
-22.8533
-22.6865
-22.5105
-22.3306
-22.1482
-21.9626
-21.7713
-21.5711
-21.3579
-21.1256
-20.872
-20.6151
-20.3938
-20.233
-20.1068
-19.973
-19.8039
-19.574
-19.2585
-18.8474
-18.3443
-17.759
-17.1047
-16.3988
-15.6638
-14.9385
-14.2597
-13.6123
-12.9658
-12.3187
-11.6696
-10.9984
-10.2886
-9.53063
-8.72
-7.85645
-6.94045
-5.97139
-4.95353
-3.89763
-2.82095
-1.74287
-0.679084
0.35379
1.33417
2.24426
3.07736
3.83487
4.51635
5.11533
5.63728
6.09926
6.499
6.77593
6.90464
6.96055
6.97198
6.9187
6.83108
6.76266
6.72831
6.73694
6.80513
6.94322
7.14915
7.40975
7.70698
8.03481
8.40206
8.81815
9.29144
9.82929
10.4293
11.0691
11.7065
12.2925
12.7858
13.1696
13.4613
13.695
13.8779
13.9893
14.0143
13.9606
13.8575
13.7518
13.6797
13.6547
13.6741
13.726
13.7981
13.8753
13.933
13.9553
13.945
13.8941
13.7914
13.6411
13.4538
13.2601
13.0979
12.9848
12.8949
-6.50472
-6.6839
-7.00553
-7.43553
-7.94459
-8.51178
-9.12347
-9.76756
-10.4314
-11.1028
-11.7704
-12.4231
-13.051
-13.6464
-14.2045
-14.7233
-15.202
-15.6384
-16.0304
-16.3791
-16.6893
-16.9678
-17.2242
-17.4699
-17.7162
-17.9704
-18.2364
-18.5153
-18.8073
-19.114
-19.439
-19.7876
-20.1646
-20.5752
-21.0236
-21.5083
-22.0241
-22.5651
-23.1232
-23.6884
-24.2515
-24.807
-25.3462
-25.8558
-26.3258
-26.7492
-27.1159
-27.4158
-27.6473
-27.8145
-27.9162
-27.9454
-27.9013
-27.7897
-27.6221
-27.4124
-27.1746
-26.9228
-26.6725
-26.4388
-26.2339
-26.0635
-25.9179
-25.784
-25.6545
-25.5219
-25.3836
-25.2444
-25.1136
-24.9901
-24.8629
-24.7301
-24.5916
-24.4497
-24.3052
-24.1524
-23.9852
-23.8038
-23.6129
-23.4197
-23.2315
-23.0537
-22.887
-22.7272
-22.5673
-22.3966
-22.2024
-21.9841
-21.7663
-21.5919
-21.4813
-21.4003
-21.3014
-21.1553
-20.9365
-20.6236
-20.211
-19.7063
-19.119
-18.4603
-17.7488
-17.0135
-16.2912
-15.6164
-14.9748
-14.3374
-13.7002
-13.0543
-12.3783
-11.6582
-10.885
-10.0528
-9.16142
-8.21429
-7.21401
-6.16682
-5.08506
-3.98625
-2.88798
-1.80393
-0.751519
0.245122
1.16671
2.00634
2.76596
3.44676
4.04479
4.56345
5.01102
5.37955
5.61931
5.72245
5.76593
5.76787
5.70751
5.62548
5.57345
5.56029
5.59216
5.68259
5.83877
6.05752
6.32735
6.63435
6.97415
7.35535
7.78807
8.27928
8.83428
9.44959
10.1022
10.7484
11.3379
11.8326
12.2216
12.5245
12.7737
12.9749
13.1042
13.1458
13.1085
13.0224
12.9336
12.8765
12.8638
12.893
12.9513
13.0258
13.1025
13.1591
13.1825
13.1761
13.1284
13.0278
12.8805
12.6965
12.5031
12.3369
12.2165
12.1236
-6.59732
-6.7711
-7.08325
-7.50114
-8.00551
-8.58124
-9.21498
-9.89364
-10.6039
-11.3332
-12.069
-12.799
-13.5119
-14.1975
-14.8481
-15.4592
-16.0278
-16.5512
-17.0271
-17.4572
-17.8471
-18.2048
-18.54
-18.864
-19.1863
-19.5131
-19.8478
-20.1919
-20.5464
-20.915
-21.3039
-21.7197
-22.1677
-22.6515
-23.1715
-23.7221
-24.2961
-24.8865
-25.4851
-26.0833
-26.6719
-27.2446
-27.7944
-28.3098
-28.7811
-29.1999
-29.5546
-29.8349
-30.0419
-30.1814
-30.252
-30.2461
-30.1622
-30.0059
-29.7875
-29.5203
-29.2192
-28.8995
-28.5782
-28.2734
-27.9989
-27.7588
-27.5441
-27.3451
-27.1556
-26.9675
-26.7774
-26.5898
-26.412
-26.2412
-26.0687
-25.8918
-25.7068
-25.513
-25.3139
-25.1104
-24.8998
-24.6825
-24.463
-24.2485
-24.048
-23.8699
-23.7164
-23.5832
-23.4587
-23.3256
-23.1661
-22.9827
-22.8045
-22.6764
-22.6148
-22.5775
-22.5113
-22.3857
-22.1772
-21.8688
-21.4593
-20.9575
-20.373
-19.7156
-19.003
-18.2652
-17.5385
-16.8564
-16.2116
-15.5787
-14.9501
-14.3108
-13.6381
-12.9188
-12.1422
-11.3002
-10.3927
-9.42517
-8.40239
-7.33145
-6.22694
-5.10793
-3.99203
-2.89235
-1.82619
-0.817335
0.11476
0.962205
1.72641
2.40975
3.01024
3.52783
3.96253
4.30336
4.51354
4.59787
4.63245
4.62796
4.56397
4.48767
4.44913
4.45336
4.50402
4.61167
4.78008
5.00525
5.27794
5.58889
5.93583
6.32735
6.77424
7.28156
7.85165
8.47928
9.14051
9.79072
10.3796
10.8726
11.2643
11.5754
11.8356
12.0495
12.1928
12.25
12.2305
12.1629
12.0913
12.0486
12.0466
12.0831
12.1461
12.2231
12.3018
12.361
12.3874
12.3855
12.3438
12.2503
12.1124
11.9384
11.7507
11.5842
11.4582
11.3615
-6.56711
-6.73183
-7.03166
-7.44679
-7.96317
-8.5653
-9.23768
-9.96542
-10.734
-11.5295
-12.3377
-13.1442
-13.9354
-14.6998
-15.4287
-16.1166
-16.7612
-17.3622
-17.9204
-18.4381
-18.9192
-19.3688
-19.7942
-20.2032
-20.6029
-20.9983
-21.393
-21.7898
-22.1917
-22.6049
-23.0373
-23.497
-23.9899
-24.5195
-25.0843
-25.6769
-26.2888
-26.9118
-27.5394
-28.1646
-28.7772
-29.3684
-29.9315
-30.4559
-30.9325
-31.3525
-31.7047
-31.9798
-32.1787
-32.3065
-32.3604
-32.3313
-32.2185
-32.0286
-31.7709
-31.4579
-31.1056
-30.7307
-30.3517
-29.9885
-29.6545
-29.3522
-29.0743
-28.814
-28.5664
-28.3238
-28.0828
-27.8474
-27.622
-27.4018
-27.181
-26.9594
-26.7318
-26.4944
-26.2502
-26.0033
-25.7539
-25.5022
-25.2528
-25.0138
-24.7977
-24.615
-24.4698
-24.3564
-24.2591
-24.1559
-24.0264
-23.8755
-23.7341
-23.6452
-23.6224
-23.6193
-23.5758
-23.462
-23.2589
-22.9546
-22.5503
-22.0553
-21.4793
-20.8306
-20.1237
-19.3854
-18.6545
-17.9638
-17.3106
-16.6755
-16.049
-15.4146
-14.7489
-14.0372
-13.2652
-12.4221
-11.5075
-10.5287
-9.49157
-8.40418
-7.2834
-6.15058
-5.02437
-3.9175
-2.84499
-1.82836
-0.88726
-0.0314756
0.739155
1.42759
2.03299
2.55174
2.97706
3.29631
3.48478
3.55696
3.58705
3.57991
3.51526
3.44281
3.41302
3.42938
3.49357
3.61324
3.78842
4.01439
4.28443
4.59414
4.94418
5.34293
5.80114
6.32179
6.90364
7.53907
8.20314
8.85138
9.43487
9.92252
10.3134
10.6286
10.8943
11.1145
11.2672
11.3383
11.3372
11.2892
11.2348
11.2062
11.2145
11.2576
11.3249
11.4053
11.4884
11.554
11.586
11.5894
11.5557
11.4732
11.3491
11.19
11.0125
10.8488
10.7191
10.6183
-6.40711
-6.56866
-6.87308
-7.30738
-7.85678
-8.50308
-9.22838
-10.0157
-10.8486
-11.71
-12.5835
-13.4534
-14.3056
-15.1298
-15.9199
-16.6729
-17.3879
-18.0654
-18.7065
-19.3121
-19.8822
-20.4182
-20.9228
-21.4009
-21.8582
-22.3006
-22.7338
-23.1623
-23.5907
-24.0266
-24.4789
-24.956
-25.4654
-26.0116
-26.5935
-27.2036
-27.8326
-28.4723
-29.1167
-29.7604
-30.3923
-31.0002
-31.5766
-32.1131
-32.6014
-33.0329
-33.3967
-33.684
-33.8937
-34.0291
-34.0848
-34.049
-33.922
-33.7128
-33.4309
-33.0888
-32.7042
-32.2952
-31.8811
-31.4812
-31.1066
-30.7581
-30.4312
-30.1225
-29.828
-29.5402
-29.2561
-28.9788
-28.7116
-28.4482
-28.1849
-27.9241
-27.6624
-27.3938
-27.1175
-26.837
-26.5549
-26.2728
-25.9957
-25.7329
-25.4992
-25.3076
-25.1631
-25.0586
-24.9759
-24.8922
-24.7872
-24.6655
-24.5568
-24.4966
-24.4964
-24.5115
-24.4764
-24.3625
-24.1568
-23.853
-23.4538
-22.968
-22.4044
-21.7691
-21.0739
-20.3403
-19.6095
-18.9138
-18.2512
-17.6094
-16.9804
-16.3486
-15.6905
-14.9882
-14.2232
-13.3829
-12.4672
-11.485
-10.4426
-9.34859
-8.22173
-7.08506
-5.95889
-4.85562
-3.78615
-2.7682
-1.82143
-0.958011
-0.179748
0.515827
1.12792
1.65028
2.07164
2.37749
2.5533
2.62077
2.65013
2.64389
2.58052
2.50859
2.48209
2.50519
2.57731
2.70375
2.88102
3.10343
3.36669
3.67095
4.02067
4.42402
4.8904
5.42034
6.00897
6.64626
7.30641
7.9461
8.51911
8.99773
9.38416
9.69908
9.9641
10.1841
10.3412
10.424
10.4406
10.4122
10.3748
10.3603
10.3794
10.4298
10.5022
10.5874
10.6772
10.7524
10.7932
10.8036
10.7794
10.7101
10.6022
10.4602
10.2953
10.1365
10.0055
9.90105
-6.11981
-6.29154
-6.61894
-7.08792
-7.68174
-8.37967
-9.16142
-10.0076
-10.899
-11.8161
-12.7411
-13.6589
-14.5581
-15.4317
-16.2763
-17.0902
-17.8715
-18.6175
-19.3259
-19.9956
-20.6256
-21.2168
-21.771
-22.2916
-22.7836
-23.2538
-23.7093
-24.1552
-24.5968
-25.0416
-25.4982
-25.9749
-26.4795
-27.0181
-27.5917
-28.195
-28.8201
-29.4592
-30.1058
-30.7553
-31.3982
-32.0197
-32.6093
-33.1606
-33.6661
-34.117
-34.5032
-34.8159
-35.0519
-35.2135
-35.2932
-35.2737
-35.1529
-34.9423
-34.6545
-34.3039
-33.9098
-33.4913
-33.0673
-32.6554
-32.2637
-31.8919
-31.5376
-31.2005
-30.877
-30.5601
-30.2476
-29.9422
-29.6453
-29.3516
-29.0598
-28.7744
-28.4924
-28.2076
-27.9144
-27.6126
-27.3068
-27.0005
-26.6993
-26.4138
-26.1603
-25.9544
-25.8009
-25.6919
-25.6091
-25.5329
-25.446
-25.3492
-25.2671
-25.2242
-25.2281
-25.2413
-25.1984
-25.0715
-24.8541
-24.5446
-24.1472
-23.6694
-23.1179
-22.4977
-21.8183
-21.0981
-20.3745
-19.6791
-19.0096
-18.3603
-17.7285
-17.0993
-16.4484
-15.7543
-14.9953
-14.1585
-13.2459
-12.2674
-11.2287
-10.1386
-9.01641
-7.88669
-6.77184
-5.68396
-4.62869
-3.61816
-2.6712
-1.80243
-1.01652
-0.312688
0.307414
0.835952
1.25984
1.56148
1.73443
1.80463
1.83518
1.83239
1.77167
1.69703
1.66857
1.69351
1.768
1.89623
2.07201
2.28768
2.54112
2.83661
3.18297
3.58824
4.05916
4.59313
5.18214
5.81415
6.46307
7.08756
7.64502
8.11099
8.48942
8.79921
9.05767
9.27137
9.42867
9.52077
9.55405
9.54462
9.52355
9.52248
9.55273
9.61117
9.69027
9.78251
9.88126
9.96834
10.021
10.0407
10.0275
9.97296
9.88138
9.75593
9.60349
9.4506
9.3207
9.21414
-5.69714
-5.88303
-6.23528
-6.73855
-7.37462
-8.11971
-8.95071
-9.84607
-10.785
-11.7481
-12.7187
-13.6823
-14.6271
-15.545
-16.4323
-17.2882
-18.1107
-18.896
-19.6406
-20.3433
-21.0047
-21.6262
-22.2091
-22.755
-23.2679
-23.7548
-24.2228
-24.6777
-25.1247
-25.5702
-26.0208
-26.4836
-26.9661
-27.476
-28.0178
-28.5916
-29.1938
-29.8177
-30.455
-31.099
-31.7427
-32.372
-32.9743
-33.5419
-34.0669
-34.5414
-34.9577
-35.307
-35.584
-35.7878
-35.9098
-35.9292
-35.8387
-35.6494
-35.3777
-35.0416
-34.6626
-34.2601
-33.8519
-33.4531
-33.0697
-32.7
-32.3431
-32.0007
-31.6699
-31.3446
-31.0234
-30.7079
-30.3988
-30.0924
-29.7897
-29.4962
-29.2088
-28.9212
-28.6262
-28.319
-28.0009
-27.677
-27.3547
-27.0466
-26.7712
-26.5461
-26.3759
-26.2512
-26.1559
-26.0761
-25.9994
-25.9206
-25.8554
-25.8183
-25.8094
-25.7996
-25.7323
-25.5806
-25.3426
-25.0202
-24.6187
-24.1432
-23.6001
-22.9954
-22.3362
-21.6373
-20.9283
-20.2381
-19.5671
-18.9139
-18.2817
-17.6566
-17.0133
-16.3259
-15.5713
-14.738
-13.8311
-12.8611
-11.8331
-10.7555
-9.64868
-8.53806
-7.44688
-6.3861
-5.35578
-4.36194
-3.42169
-2.55161
-1.75971
-1.04783
-0.418725
0.118757
0.551496
0.858392
1.038
1.11653
1.14923
1.15076
1.09355
1.01498
0.98058
1.00306
1.07522
1.20054
1.37177
1.57852
1.81993
2.10424
2.44438
2.84823
3.31905
3.85073
4.43268
5.05149
5.68167
6.28497
6.82256
7.27248
7.63908
7.93882
8.18545
8.38799
8.54184
8.6409
8.68925
8.6977
8.69188
8.70303
8.74348
8.81028
8.89786
9.00024
9.11048
9.21106
9.27764
9.30869
9.30793
9.26849
9.19208
9.08081
8.93916
8.79179
8.66468
8.55799
-5.06301
-5.2639
-5.64071
-6.17637
-6.85001
-7.6359
-8.50955
-9.44893
-10.4333
-11.4424
-12.4577
-13.4628
-14.4423
-15.3842
-16.2851
-17.1479
-17.9754
-18.7674
-19.5226
-20.2406
-20.9215
-21.5642
-22.1674
-22.7308
-23.2569
-23.752
-24.2234
-24.6772
-25.1193
-25.5562
-25.9931
-26.4356
-26.8905
-27.3649
-27.8655
-28.3972
-28.9629
-29.5596
-30.1774
-30.8059
-31.4377
-32.0617
-32.6659
-33.244
-33.7883
-34.2913
-34.746
-35.1429
-35.4729
-35.7312
-35.9089
-35.986
-35.9516
-35.8134
-35.5865
-35.2923
-34.9559
-34.5974
-34.2326
-33.8737
-33.5252
-33.1842
-32.8504
-32.5262
-32.2099
-31.8969
-31.5856
-31.2761
-30.969
-30.6634
-30.3634
-30.0752
-29.7967
-29.5228
-29.2427
-28.9446
-28.6262
-28.2928
-27.9535
-27.6235
-27.3236
-27.073
-26.8779
-26.7304
-26.6166
-26.525
-26.4474
-26.3762
-26.3164
-26.2736
-26.2396
-26.1912
-26.0857
-25.8993
-25.6323
-25.2883
-24.8726
-24.3914
-23.8523
-23.2623
-22.6267
-21.9546
-21.2678
-20.5894
-19.9228
-19.2711
-18.6413
-18.0205
-17.3828
-16.7
-15.9484
-15.1194
-14.2199
-13.2616
-12.2505
-11.1951
-10.1161
-9.03922
-7.98621
-6.96488
-5.96971
-5.00133
-4.07497
-3.20832
-2.41284