/*--------------------------------*- C++ -*----------------------------------*\
  =========                 |
  \\      /  F ield         | OpenFOAM: The Open Source CFD Toolbox
   \\    /   O peration     | Website:  https://openfoam.org
    \\  /    A nd           | Version:  6
     \\/     M anipulation  |
\*---------------------------------------------------------------------------*/
FoamFile
{
    version     2.0;
    format      ascii;
    class       volScalarField;
    location    "0.4";
    object      pPrime2Mean;
}
// * * * * * * * * * * * * * * * * * * * * * * * * * * * * * * * * * * * * * //

dimensions      [0 4 -4 0 0 0 0];

internalField   nonuniform List<scalar> 
12225
(
1.30457e+06
1.28482e+06
1.2649e+06
1.24533e+06
1.22625e+06
1.20771e+06
1.1897e+06
1.17222e+06
1.15525e+06
1.13874e+06
1.12264e+06
1.10688e+06
1.09139e+06
1.07605e+06
1.0607e+06
1.04508e+06
1.02874e+06
1.01054e+06
1.30461e+06
1.28485e+06
1.26493e+06
1.24536e+06
1.22628e+06
1.20773e+06
1.18972e+06
1.17225e+06
1.15528e+06
1.13877e+06
1.12268e+06
1.10693e+06
1.09146e+06
1.07614e+06
1.06083e+06
1.0453e+06
1.02916e+06
1.01161e+06
1.3047e+06
1.28493e+06
1.26499e+06
1.24541e+06
1.22633e+06
1.20778e+06
1.18977e+06
1.1723e+06
1.15534e+06
1.13884e+06
1.12276e+06
1.10704e+06
1.0916e+06
1.07634e+06
1.06112e+06
1.04576e+06
1.02999e+06
1.0135e+06
1.30484e+06
1.28505e+06
1.2651e+06
1.2455e+06
1.22641e+06
1.20786e+06
1.18986e+06
1.17239e+06
1.15544e+06
1.13896e+06
1.12291e+06
1.10723e+06
1.09184e+06
1.07666e+06
1.06158e+06
1.04647e+06
1.0312e+06
1.01577e+06
1.30508e+06
1.28524e+06
1.26525e+06
1.24564e+06
1.22653e+06
1.20798e+06
1.18998e+06
1.17252e+06
1.15559e+06
1.13914e+06
1.12312e+06
1.10749e+06
1.09218e+06
1.07712e+06
1.06223e+06
1.04743e+06
1.0327e+06
1.01822e+06
1.30542e+06
1.2855e+06
1.26547e+06
1.24582e+06
1.2267e+06
1.20814e+06
1.19015e+06
1.17271e+06
1.15579e+06
1.13937e+06
1.12341e+06
1.10785e+06
1.09265e+06
1.07774e+06
1.06307e+06
1.04863e+06
1.03445e+06
1.02077e+06
1.30583e+06
1.28584e+06
1.26575e+06
1.24607e+06
1.22693e+06
1.20836e+06
1.19037e+06
1.17294e+06
1.15606e+06
1.13969e+06
1.12379e+06
1.10832e+06
1.09323e+06
1.0785e+06
1.0641e+06
1.05002e+06
1.03637e+06
1.02336e+06
1.30639e+06
1.28627e+06
1.26611e+06
1.24638e+06
1.22722e+06
1.20864e+06
1.19066e+06
1.17325e+06
1.1564e+06
1.14008e+06
1.12426e+06
1.1089e+06
1.09396e+06
1.07943e+06
1.0653e+06
1.0516e+06
1.03843e+06
1.02598e+06
1.30708e+06
1.28682e+06
1.26656e+06
1.24678e+06
1.22758e+06
1.20899e+06
1.19101e+06
1.17363e+06
1.15683e+06
1.14057e+06
1.12484e+06
1.1096e+06
1.09482e+06
1.08051e+06
1.06667e+06
1.05333e+06
1.0406e+06
1.02861e+06
1.30794e+06
1.28749e+06
1.26712e+06
1.24726e+06
1.22802e+06
1.20942e+06
1.19145e+06
1.17409e+06
1.15734e+06
1.14116e+06
1.12553e+06
1.11042e+06
1.09583e+06
1.08175e+06
1.06819e+06
1.0552e+06
1.04285e+06
1.03125e+06
1.30892e+06
1.28829e+06
1.26779e+06
1.24784e+06
1.22855e+06
1.20993e+06
1.19197e+06
1.17465e+06
1.15795e+06
1.14186e+06
1.12634e+06
1.11138e+06
1.09698e+06
1.08312e+06
1.06984e+06
1.05718e+06
1.04517e+06
1.0339e+06
1.30992e+06
1.28916e+06
1.26852e+06
1.24848e+06
1.22914e+06
1.21049e+06
1.19253e+06
1.17525e+06
1.15861e+06
1.1426e+06
1.12719e+06
1.11238e+06
1.09815e+06
1.08451e+06
1.07147e+06
1.05907e+06
1.04735e+06
1.03634e+06
1.31116e+06
1.29017e+06
1.26936e+06
1.24921e+06
1.2298e+06
1.21112e+06
1.19317e+06
1.17592e+06
1.15934e+06
1.14342e+06
1.12813e+06
1.11346e+06
1.09941e+06
1.08598e+06
1.07317e+06
1.06101e+06
1.04953e+06
1.03875e+06
1.31285e+06
1.2915e+06
1.27046e+06
1.25016e+06
1.23066e+06
1.21195e+06
1.194e+06
1.17679e+06
1.16029e+06
1.14447e+06
1.12932e+06
1.11482e+06
1.10097e+06
1.08775e+06
1.07519e+06
1.06329e+06
1.05205e+06
1.04149e+06
1.31516e+06
1.29327e+06
1.2719e+06
1.25139e+06
1.23178e+06
1.21302e+06
1.19508e+06
1.17792e+06
1.1615e+06
1.14581e+06
1.13081e+06
1.1165e+06
1.10286e+06
1.08988e+06
1.07757e+06
1.06592e+06
1.05492e+06
1.04458e+06
1.31809e+06
1.29554e+06
1.27373e+06
1.25297e+06
1.2332e+06
1.21438e+06
1.19644e+06
1.17934e+06
1.16302e+06
1.14747e+06
1.13264e+06
1.11853e+06
1.10511e+06
1.09238e+06
1.08031e+06
1.0689e+06
1.05814e+06
1.048e+06
1.32179e+06
1.29834e+06
1.27598e+06
1.25489e+06
1.23496e+06
1.21606e+06
1.19813e+06
1.18108e+06
1.16488e+06
1.14947e+06
1.13483e+06
1.12093e+06
1.10773e+06
1.09523e+06
1.0834e+06
1.07222e+06
1.06167e+06
1.05172e+06
1.32591e+06
1.30146e+06
1.2785e+06
1.25708e+06
1.23697e+06
1.21802e+06
1.2001e+06
1.18313e+06
1.16705e+06
1.1518e+06
1.13735e+06
1.12365e+06
1.11067e+06
1.09839e+06
1.08678e+06
1.0758e+06
1.06544e+06
1.05566e+06
1.32985e+06
1.30426e+06
1.28083e+06
1.2592e+06
1.23902e+06
1.22007e+06
1.20223e+06
1.18537e+06
1.16944e+06
1.15436e+06
1.14009e+06
1.12659e+06
1.11381e+06
1.10173e+06
1.09031e+06
1.07951e+06
1.06932e+06
1.05968e+06
1.32892e+06
1.30454e+06
1.28163e+06
1.26027e+06
1.24028e+06
1.2215e+06
1.20379e+06
1.18708e+06
1.17128e+06
1.15635e+06
1.14222e+06
1.12887e+06
1.11624e+06
1.10429e+06
1.093e+06
1.08232e+06
1.07223e+06
1.06269e+06
1.32769e+06
1.30411e+06
1.28171e+06
1.26069e+06
1.24093e+06
1.22231e+06
1.20475e+06
1.18816e+06
1.17247e+06
1.15765e+06
1.14362e+06
1.13036e+06
1.11782e+06
1.10596e+06
1.09475e+06
1.08415e+06
1.07412e+06
1.06464e+06
1.32627e+06
1.30342e+06
1.2815e+06
1.2608e+06
1.24127e+06
1.22282e+06
1.20538e+06
1.1889e+06
1.17331e+06
1.15857e+06
1.14462e+06
1.13143e+06
1.11896e+06
1.10716e+06
1.096e+06
1.08545e+06
1.07546e+06
1.06602e+06
1.32502e+06
1.30272e+06
1.2812e+06
1.26078e+06
1.24144e+06
1.22313e+06
1.2058e+06
1.18941e+06
1.17389e+06
1.15921e+06
1.14532e+06
1.13219e+06
1.11976e+06
1.108e+06
1.09688e+06
1.08636e+06
1.07641e+06
1.06699e+06
1.32388e+06
1.30208e+06
1.2809e+06
1.2607e+06
1.24151e+06
1.22332e+06
1.20608e+06
1.18975e+06
1.17429e+06
1.15966e+06
1.14581e+06
1.13271e+06
1.12032e+06
1.10859e+06
1.0975e+06
1.087e+06
1.07707e+06
1.06767e+06
1.32301e+06
1.30157e+06
1.28064e+06
1.26061e+06
1.24154e+06
1.22344e+06
1.20626e+06
1.18998e+06
1.17456e+06
1.15996e+06
1.14615e+06
1.13307e+06
1.1207e+06
1.10899e+06
1.09792e+06
1.08744e+06
1.07752e+06
1.06814e+06
1.32232e+06
1.30117e+06
1.28043e+06
1.26053e+06
1.24156e+06
1.22351e+06
1.20638e+06
1.19013e+06
1.17474e+06
1.16017e+06
1.14637e+06
1.13331e+06
1.12096e+06
1.10926e+06
1.0982e+06
1.08773e+06
1.07783e+06
1.06845e+06
1.32172e+06
1.30088e+06
1.28029e+06
1.26047e+06
1.24156e+06
1.22355e+06
1.20645e+06
1.19023e+06
1.17486e+06
1.1603e+06
1.14651e+06
1.13347e+06
1.12112e+06
1.10944e+06
1.09838e+06
1.08792e+06
1.07802e+06
1.06865e+06
1.32133e+06
1.30069e+06
1.28019e+06
1.26044e+06
1.24156e+06
1.22358e+06
1.20649e+06
1.19029e+06
1.17493e+06
1.16038e+06
1.1466e+06
1.13356e+06
1.12122e+06
1.10954e+06
1.09849e+06
1.08804e+06
1.07814e+06
1.06877e+06
1.32113e+06
1.30058e+06
1.28014e+06
1.26042e+06
1.24155e+06
1.22359e+06
1.20652e+06
1.19032e+06
1.17496e+06
1.16042e+06
1.14665e+06
1.13361e+06
1.12127e+06
1.1096e+06
1.09855e+06
1.0881e+06
1.0782e+06
1.06883e+06
1.32101e+06
1.30053e+06
1.28012e+06
1.26041e+06
1.24155e+06
1.22359e+06
1.20653e+06
1.19033e+06
1.17498e+06
1.16043e+06
1.14667e+06
1.13363e+06
1.1213e+06
1.10962e+06
1.09858e+06
1.08812e+06
1.07823e+06
1.06886e+06
854383
854315
854178
853970
853690
853339
852913
852413
851836
851182
850448
849636
848743
847771
846717
845583
844367
843070
841691
840231
838690
837067
835364
833581
831718
829778
827760
825665
823495
821251
818933
816543
814081
811549
808948
806279
803543
800741
797874
794943
791950
788893
785775
782597
779359
776062
772707
769294
765824
762297
758716
755080
751393
747655
743868
740032
736149
732219
728245
724227
720166
716061
711915
707728
703501
699233
694924
690573
686184
681757
677292
672791
668254
663679
659068
654423
649748
645046
640317
635560
630775
625965
621128
616264
611374
606459
601519
596554
591563
586547
581508
576446
571362
566257
561128
555976
550802
545610
540398
535167
529913
524637
519336
514013
508673
503322
497959
492584
487203
481824
476443
471056
465655
460235
454792
449325
443837
438329
432805
427268
421723
416172
410616
405059
399503
393950
388400
382855
377312
371770
366226
360677
355122
349557
343985
338418
332863
327324
321798
316280
310765
305248
299727
294201
288670
283137
277608
272088
266581
261093
255626
250181
244759
239359
233981
228627
223301
218007
212740
207498
202277
197077
191900
186750
181630
176543
171489
166472
161494
156560
151672
146833
142043
137303
132614
127981
123410
118909
114496
110212
854691
854623
854485
854276
853995
853642
853214
852710
852130
851472
850735
849919
849023
848045
846987
845848
844627
843324
841939
840473
838924
837295
835585
833795
831926
829979
827954
825853
823677
821426
819102
816706
814240
811703
809096
806422
803681
800875
798004
795068
792070
789010
785888
782705
779463
776161
772802
769386
765912
762382
758797
755158
751467
747726
743935
740096
736210
732278
728302
724283
720220
716113
711965
707775
703544
699273
694961
690609
686218
681790
677325
672822
668282
663706
659094
654449
649775
645073
640343
635586
630802
625991
621153
616289
611399
606482
601541
596574
591582
586567
581528
576467
571384
566278
561149
555998
550826
545635
540423
535191
529936
524658
519357
514034
508694
503340
497975
492602
487226
481851
476473
471085
465684
460262
454817
449348
443858
438348
432822
427284
421737
416184
410628
405071
399515
393962
388413
382868
377325
371783
366238
360688
355131
349566
343998
338436
332885
327348
321821
316301
310784
305265
299743
294215
288683
283150
277621
272100
266592
261103
255634
250188
244765
239364
233986
228632
223308
218013
212747
207504
202282
197081
191904
186754
181635
176547
171493
166475
161497
156562
151674
146835
142044
137304
132614
127981
123408
118904
114485
110180
855311
855241
855102
854891
854608
854251
853818
853309
852723
852059
851315
850491
849586
848599
847531
846381
845149
843834
842437
840958
839396
837753
836030
834226
832343
830382
828344
826230
824040
821777
819441
817033
814555
812007
809391
806707
803956
801141
798261
795317
792310
789241
786111
782920
779670
776360
772993
769569
766088
762551
758959
755313
751615
747867
744070
740224
736333
732397
728418
724395
720327
716217
712063
707868
703632
699356
695040
690685
686291
681860
677390
672883
668339
663760
659147
654503
649829
645126
640395
635636
630851
626039
621201
616336
611443
606524
601580
596611
591619
586604
581567
576507
571424
566318
561190
556041
550871
545681
540468
535234
529976
524696
519393
514069
508727
503371
498006
492637
487268
481898
476522
471135
465732
460308
454860
449388
443894
438380
432851
427310
421761
416207
410650
405093
399537
393984
388436
382891
377348
371805
366259
360708
355150
349587
344025
338470
332924
327388
321861
316338
310818
305296
299771
294241
288708
283175
277645
272123
266613
261121
255650
250202
244777
239375
233996
228643
223319
218025
212758
207514
202291
197090
191913
186763
181643
176555
171500
166481
161501
156566
151677
146837
142046
137305
132614
127978
123402
118893
114465
110133
856245
856175
856033
855819
855532
855169
854730
854213
853618
852943
852188
851351
850433
849432
848348
847181
845931
844598
843182
841683
840102
838439
836696
834872
832969
830988
828929
826795
824586
822304
819950
817524
815028
812464
809832
807133
804368
801539
798646
795689
792670
789589
786447
783244
779981
776660
773282
769846
766353
762804
759201
755545
751837
748078
744272
740418
736519
732576
728590
724560
720486
716369
712208
708006
703764
699482
695161
690801
686402
681964
677488
672975
668426
663844
659229
654583
649908
645203
640471
635710
630923
626109
621268
616401
611505
606583
601636
596666
591674
586659
581622
576562
571480
566375
561250
556103
550935
545744
540531
535293
530032
524747
519441
514114
508769
503413
498052
492690
487326
481960
476587
471200
465795
460368
454917
449441
443942
438424
432890
427346
421794
416238
410680
405122
399566
394013
388465
382921
377379
371837
366290
360737
355180
349622
344066
338516
332974
327440
321912
316387
310864
305339
299811
294279
288745
283211
277680
272156
266643
261147
255672
250221
244794
239390
234011
228658
223334
218040
212772
207527
202303
197102
191925
186775
181654
176565
171509
166489
161508
156571
151681
146841
142049
137307
132614
127975
123395
118880
114439
110080
857501
857428
857283
857065
856771
856400
855952
855424
854816
854127
853355
852501
851563
850541
849435
848246
846972
845614
844172
842648
841040
839351
837580
835729
833800
831792
829708
827548
825314
823007
820628
818179
815660
813073
810420
807701
804917
802069
799158
796185
793150
790053
786894
783675
780397
777060
773666
770214
766706
763142
759524
755852
752130
748359
744540
740675
736765
732812
728815
724776
720693
716566
712397
708187
703938
699649
695321
690954
686546
682100
677617
673098
668544
663958
659340
654691
650013
645306
640571
635807
631017
626199
621355
616483
611584
606659
601709
596737
591744
586729
581692
576632
571551
566449
561325
556181
551014
545823
540608
535368
530102
524812
519501
514170
508824
503470
498114
492758
487399
482037
476665
471278
465872
460441
454985
449503
443999
438476
432938
427389
421835
416276
410717
405157
399601
394049
388501
382958
377418
371876
366329
360777
355222
349669
344118
338573
333034
327502
321973
316446
310920
305391
299860
294326
288790
283256
277723
272197
266681
261181
255702
250247
244816
239411
234030
228678
223354
218059
212790
207543
202319
197116
191939
186789
181668
176578
171521
166500
161517
156578
151687
146846
142053
137309
132614
127972
123387
118864
114410
110027
859085
859009
858860
858634
858332
857951
857489
856946
856321
855612
854819
853941
852978
851930
850797
849577
848273
846884
845410
843852
842211
840488
838684
836800
834837
832796
830680
828488
826223
823885
821476
818997
816450
813836
811156
808411
805603
802731
799798
796803
793747
790629
787451
784212
780914
777558
774144
770673
767145
763562
759924
756234
752495
748707
744872
740992
737067
733100
729090
725037
720942
716804
712625
708406
704148
699851
695514
691138
686722
682267
677777
673252
668693
664101
659478
654825
650142
645431
640692
635925
631130
626308
621458
616581
611677
606749
601797
596823
591828
586812
581775
576715
571636
566536
561416
556273
551107
545916
540700
535456
530185
524891
519575
514240
508894
503544
498192
492840
487486
482126
476756
471368
465958
460524
455062
449575
444065
438536
432993
427440
421882
416321
410759
405198
399641
394089
388543
383001
377462
371921
366376
360825
355275
349726
344180
338638
333103
327571
322041
316513
310983
305451
299916
294380
288843
283307
277774
272245
266725
261221
255737
250278
244844
239436
234055
228702
223377
218081
212810
207562
202336
197133
191956
186805
181683
176592
171534
166512
161528
156588
151695
146853
142059
137313
132615
127969
123379
118848
114381
109975
861008
860928
860772
860537
860223
859827
859347
858784
858136
857403
856582
855676
854682
853600
852432
851177
849835
848407
846894
845296
843615
841852
840008
838083
836081
834001
831846
829616
827313
824938
822493
819979
817397
814750
812038
809262
806424
803524
800563
797541
794459
791316
788113
784850
781528
778149
774711
771216
767665
764059
760398
756687
752926
749117
745263
741363
737421
733436
729409
725341
721232
717081
712891
708661
704393
700085
695738
691353
686929
682467
677969
673437
668870
664271
659641
654982
650294
645577
640832
636060
631259
626432
621576
616693
611784
606851
601896
596920
591924
586908
581869
576811
571733
566636
561518
556377
551212
546021
540802
535556
530282
524983
519663
514325
508979
503630
498281
492933
487582
482225
476854
471465
466052
460613
455147
449654
444138
438603
433055
427498
421935
416370
410806
405244
399686
394134
388588
383048
377511
371972
366429
360882
355337
349791
344248
338710
333176
327644
322114
316583
311050
305514
299976
294437
288899
283363
277828
272297
266775
261266
255777
250313
244876
239466
234083
228729
223404
218106
212833
207583
202356
197152
191975
186824
181701
176608
171550
166526
161541
156599
151706
146862
142066
137317
132617
127967
123370
118832
114351
109926
863282
863197
863032
862785
862454
862038
861537
860948
860271
859506
858652
857709
856677
855556
854345
853047
851660
850187
848627
846983
845255
843444
841553
839582
837533
835408
833207
830932
828585
826168
823680
821125
818503
815816
813066
810253
807380
804445
801451
798398
795286
792113
788881
785590
782241
778833
775368
771846
768267
764633
760947
757209
753423
749590
745712
741790
737825
733820
729773
725687
721562
717396
713193
708950
704670
700351
695994
691599
687166
682695
678189
673648
669073
664465
659827
655159
650464
645740
640988
636209
631402
626567
621706
616817
611903
606966
602007
597028
592030
587012
581973
576915
571840
566744
561628
556489
551324
546132
540913
535665
530389
525087
519762
514422
509075
503726
498378
493032
487683
482327
476957
471566
466150
460707
455237
449739
444218
438677
433123
427560
421993
416424
410856
405292
399733
394182
388637
383099
377564
372027
366487
360944
355402
349860
344320
338784
333251
327719
322187
316653
311117
305578
300037
294497
288958
283420
277884
272352
266826
261313
255820
250352
244911
239498
234115
228760
223433
218133
212858
207606
202378
197173
191995
186844
181720
176627
171567
166542
161556
156613
151718
146872
142074
137323
132619
127965
123363
118815
114322
109880
865922
865829
865653
865390
865039
864600
864070
863449
862737
861933
861038
860051
858973
857803
856543
855193
853754
852228
850614
848916
847133
845269
843323
841298
839196
837017
834764
832438
830040
827572
825036
822433
819765
817033
814239
811385
808471
805497
802466
799376
796228
793021
789756
786432
783050
779611
776114
772561
768952
765288
761571
757804
753989
750128
746222
742274
738284
734255
730186
726079
721934
717751
713531
709274
704980
700649
696281
691875
687432
682952
678435
673883
669298
664681
660033
655357
650652
645920
641159
636371
631556
626714
621846
616952
612032
607090
602127
597145
592144
587124
582084
577027
571952
566858
561743
556604
551439
546247
541027
535778
530500
525196
519868
514525
509176
503826
498478
493133
487785
482430
477059
471666
466248
460803
455329
449827
444300
438754
433194
427626
422053
416480
410909
405343
399784
394232
388688
383152
377618
372084
366547
361008
355469
349929
344391
338857
333324
327791
322257
316721
311182
305640
300097
294556
289016
283478
277941
272406
266878
261362
255865
250393
244949
239533
234148
228792
223463
218161
212884
207631
202400
197195
192017
186865
181740
176646
171585
166560
161573
156629
151733
146884
142083
137329
132622
127963
123354
118799
114294
109837
868945
868844
868654
868372
867997
867527
866963
866304
865549
864699
863754
862715
861582
860355
859036
857627
856127
854539
852863
851102
849257
847329
845321
843234
841069
838830
836517
834131
831676
829152
826561
823904
821184
818402
815559
812657
809696
806678
803603
800471
797281
794035
790731
787370
783952
780478
776946
773359
769716
766018
762269
758469
754622
750730
746794
742817
738798
734742
730647
726516
722348
718145
713906
709633
705323
700978
696597
692179
687724
683231
678702
674139
669543
664916
660259
655574
650860
646117
641347
636549
631724
626873
621997
617096
612171
607223
602255
597268
592263
587240
582199
577141
572066
566972
561857
556718
551553
546360
541140
535890
530612
525305
519976
514631
509279
503927
498578
493231
487884
482528
477157
471763
466344
460896
455419
449914
444383
438831
433266
427692
422115
416537
410964
405396
399836
394284
388741
383205
377673
372140
366606
361071
355534
349996
344459
338925
333391
327856
322321
316783
311242
305698
300154
294611
289071
283532
277994
272458
266927
261409
255908
250433
244986
239569
234182
228824
223494
218190
212911
207656
202424
197218
192039
186887
181762
176667
171605
166579
161592
156647
151749
146898
142094
137337
132625
127961
123346
118782
114267
109796
872375
872265
872058
871752
871348
870843
870239
869533
868728
867823
866820
865718
864521
863228
861841
860361
858791
857130
855382
853548
851630
849630
847550
845391
843157
840849
838468
836016
833495
830907
828254
825537
822758
819918
817020
814063
811049
807979
804853
801672
798435
795143
791796
788394
784935
781421
777852
774228
770549
766817
763032
759199
755318
751393
747424
743414
739364
735277
731154
726995
722802
718576
714316
710024
705697
701335
696938
692505
688035
683528
678986
674411
669805
665168
660503
655808
651084
646331
641550
636741
631905
627044
622159
617250
612319
607364
602390
597397
592387
587359
582315
577255
572179
567083
561966
556826
551660
546466
541245
535995
530716
525409
520079
514734
509380
504025
498673
493325
487976
482619
477246
471851
466431
460982
455503
449995
444460
438904
433334
427757
422176
416596
411020
405450
399889
394336
388793
383256
377725
372194
366662
361130
355595
350057
344520
338985
333449
327912
322375
316835
311292
305748
300203
294661
289121
283582
278043
272505
266973
261452
255949
250471
245022
239603
234215
228856
223525
218219
212938
207681
202448
197241
192061
186909
181783
176688
171626
166599
161611
156665
151765
146912
142104
137344
132628
127958
123336
118764
114238
109757
876244
876122
875895
875562
875123
874576
873923
873164
872299
871330
870258
869084
867811
866440
864973
863411
861757
860012
858179
856261
854259
852176
850014
847775
845461
843073
840614
838086
835491
832830
830106
827320
824473
821568
818605
815585
812511
809382
806199
802963
799673
796331
792936
789487
785984
782428
778817
775154
771437
767668
763847
759979
756063
752103
748099
744055
739973
735853
731699
727511
723290
719038
714756
710441
706094
701714
697298
692847
688360
683838
679283
674696
670080
665434
660760
656056
651322
646558
641766
636945
632097
627226
622331
617414
612474
607512
602530
597530
592513
587480
582431
577368
572288
567189
562069
556926
551757
546561
541338
536087
530808
525503
520174
514829
509475
504117
498762
493410
488058
482698
477324
471928
466506
461056
455576
450065
444528
438969
433396
427817
422234
416653
411075
405504
399941
394387
388841
383304
377772
372242
366712
361182
355647
350109
344571
339033
333495
327956
322417
316876
311333
305788
300244
294703
289164
283625
278085
272545
267012
261489
255985
250506
245055
239635
234245
228885
223553
218246
212964
207705
202471
197263
192083
186930
181804
176708
171646
166619
161630
156683
151781
146925
142115
137350
132629
127954
123325
118744
114210
109717
880592
880456
880205
879840
879359
878763
878053
877229
876294
875249
874095
872836
871473
870009
868445
866785
865032
863188
861257
859242
857144
854965
852709
850376
847969
845490
842941
840325
837643
834899
832093
829228
826305
823324
820289
817200
814058
810863
807618
804322
800975
797577
794129
790630
787079
783477
779823
776117
772360
768552
764695
760790
756839
752844
748806
744727
740610
736458
732271
728052
723803
719525
715216
710878
706509
702106
697669
693199
688694
684157
679589
674990
670364
665710
661027
656314
651571
646797
641992
637158
632299
627416
622511
617584
612635
607664
602674
597665
592641
587602
582547
577478
572393
567289
562164
557017
551843
546643
541417
536165
530887
525583
520257
514913
509559
504200
498841
493485
488128
482766
477388
471990
466566
461115
455634
450122
444582
439022
433449
427870
422288
416707
411128
405555
399990
394434
388886
383346
377812
372282
366754
361224
355689
350149
344608
339067
333527
327986
322445
316903
311360
305817
300275
294735
289197
283658
278118
272578
267043
261521
256016
250537
245085
239663
234273
228912
223579
218271
212988
207729
202494
197285
192103
186950
181823
176727
171664
166637
161648
156700
151796
146937
142123
137354
132629
127947
123312
118723
114180
109678
885471
885318
885039
884634
884103
883448
882668
881767
880746
879608
878355
876991
875518
873941
872262
870486
868617
866657
864611
862481
860270
857980
855613
853171
850658
848074
845423
842706
839927
837087
834189
831234
828225
825162
822047
818881
815666
812401
809087
805726
802317
798860
795355
791801
788199
784548
780848
777098
773299
769451
765556
761614
757628
753597
749525
745413
741263
737077
732859
728610
724332
720025
715690
711327
706933
702507
698048
693557
689034
684481
679899
675289
670653
665990
661299
656578
651826
647041
642224
637378
632505
627610
622694
617757
612798
607819
602819
597802
592770
587723
582662
577585
572493
567383
562251
557097
551918
546712
541482
536228
530950
525648
520325
514984
509630
504270
498908
493548
488187
482820
477438
472035
466609
461156
455674
450161
444621
439061
433490
427913
422334
416755
411177
405602
400034
394475
388924
383380
377844
372313
366785
361254
355717
350175
344631
339087
333544
328001
322459
316917
311375
305834
300294
294757
289220
283681
278140
272600
267066
261545
256041
250562
245110
239687
234296
228935
223602
218294
213010
207750
202514
197304
192122
186968
181841
176745
171682
166654
161664
156715
151809
146947
142130
137356
132626
127939
123296
118700
114148
109638
890944
890770
890456
890002
889408
888677
887810
886810
885680
884424
883048
881555
879949
878236
876421
874506
872498
870401
868218
865954
863611
861192
858700
856135
853501
850800
848034
845205
842317
839371
836371
833319
830215
827063
823861
820612
817317
813975
810589
807158
803683
800163
796597
792985
789328
785625
781875
778079
774236
770348
766414
762436
758414
754350
750244
746099
741916
737700
733451
729172
724865
720531
716169
711779
707360
702910
698429
693917
689375
684806
680209
675588
670941
666269
661570
656841
652080
647284
642456
637597
632711
627803
622875
617928
612960
607972
602964
597938
592898
587843
582774
577690
572589
567469
562330
557167
551981
546769
541534
536277
530998
525698
520377
515039
509687
504326
498962
493598
488232
482859
477472
472065
466634
461178
455694
450180
444641
439084
433516
427945
422371
416795
411217
405642
400072
394509
388954
383406
377867
372334
366803
361270
355732
350187
344640
339093
333547
328002
322459
316917
311377
305838
300302
294767
289231
283693
278152
272613
267081
261561
256060
250582
245131
239708
234317
228956
223623
218315
213031
207770
202533
197323
192139
186984
181857
176761
171697
166669
161679
156728
151820
146955
142134
137355
132620
127927
123279
118675
114116
109598
897285
897082
896719
896196
895515
894679
893692
892559
891285
889878
888343
886686
884914
883032
881045
878959
876781
874516
872170
869746
867249
864680
862043
859338
856566
853731
850834
847880
844870
841806
838693
835531
832323
829070
825772
822431
819048
815624
812158
808651
805103
801513
797881
794205
790487
786727
782924
779078
775189
771258
767284
763267
759209
755110
750970
746793
742579
738332
734054
729746
725411
721048
716658
712242
707797
703322
698818
694284
689723
685136
680524
675888
671230
666548
661840
657103
652332
647527
642687
637815
632917
627996
623056
618098
613121
608125
603110
598076
593026
587963
582885
577791
572680
567550
562400
557229
552034
546815
541574
536313
531033
525733
520415
515079
509729
504368
499003
493635
488264
482884
477490
472077
466641
461181
455694
450180
444643
439091
433530
427965
422398
416825
411249
405673
400101
394535
388976
383424
377880
372343
366809
361273
355732
350185
344635
339085
333536
327989
322445
316905
311366
305831
300298
294765
289230
283693
278154
272617
267088
261572
256074
250598
245148
239726
234335
228974
223641
218334
213050
207789
202551
197340
192155
187000
181872
176776
171712
166683
161692
156740
151829
146961
142136
137353
132613
127915
123260
118650
114083
109559
904305
904063
903632
903015
902214
901238
900092
898787
897330
895732
894001
892144
890169
888082
885891
883605
881232
878777
876248
873650
870984
868254
865459
862602
859684
856707
853674
850587
847450
844265
841035
837761
834444
831087
827689
824252
820778
817267
813718
810132
806508
802845
799143
795401
791619
787800
783941
780044
776108
772133
768118
764063
759968
755834
751663
747455
743213
738939
734633
730299
725936
721546
717130
712687
708217
703719
699192
694638
690058
685453
680825
676175
671503
666810
662093
657346
652566
647750
642900
638018
633109
628176
623225
618257
613272
608269
603246
598204
593146
588073
582985
577881
572759
567619
562459
557278
552074
546848
541600
536334
531052
525752
520435
515102
509753
504392
499026
493654
488277
482890
477489
472069
466627
461162
455673
450160
444627
439080
433527
427971
422411
416843
411269
405693
400119
394550
388988
383431
377883
372340
366801
361262
355718
350169
344616
339063
333512
327964
322421
316881
311345
305813
300282
294751
289217
283681
278145
272611
267086
261575
256082
250609
245161
239741
234350
228989
223657
218350
213066
207805
202567
197355
192170
187014
181887
176790
171726
166696
161703
156749
151836
146965
142136
137349
132603
127900
123240
118624
114051
109521
911383
911095
910579
909843
908895
907748
906415
904908
903240
901424
899471
897392
895195
892891
890487
887996
885425
882783
880075
877307
874479
871593
868649
865648
862591
859479
856316
853106
849850
846552
843213
839834
836416
832960
829468
825941
822380
818786
815158
811496
807799
804067
800298
796492
792651
788775
784864
780918
776937
772919
768864
764772
760643
756478
752278
748043
743777
739478
735149
730792
726405
721991
717551
713085
708592
704073
699527
694955
690358
685737
681093
676429
671745
667040
662312
657555
652765
647940
643081
638191
633274
628333
623374
618398
613405
608393
603363
598313
593247
588165
583067
577953
572821
567671
562502
557313
552102
546868
541615
536345
531059
525758
520441
515108
509760
504399
499031
493655
488272
482878
477470
472043
466596
461127
455636
450124
444596
439057
433512
427964
422410
416847
411276
405701
400127
394556
388990
383430
377876
372328
366785
361241
355695
350143
344589
339034
333481
327933
322390
316852
311318
305788
300258
294728
289196
283663
278129
272600
267081
261575
256086
250618
245173
239754
234365
229004
223672
218365
213081
207820
202583
197371
192186
187029
181902
176805
171740
166709
161715
156759
151843
146969
142136
137345
132595
127887
123221
118600
114022
109487
918493
918145
917522
916637
915507
914153
912595
910851
908940
906878
904681
902364
899937
897410
894795
892102
889340
886517
883639
880708
877727
874695
871611
868475
865289
862053
858770
855444
852078
848674