/*--------------------------------*- C++ -*----------------------------------*\
  =========                 |
  \\      /  F ield         | OpenFOAM: The Open Source CFD Toolbox
   \\    /   O peration     | Website:  https://openfoam.org
    \\  /    A nd           | Version:  6
     \\/     M anipulation  |
\*---------------------------------------------------------------------------*/
FoamFile
{
    version     2.0;
    format      ascii;
    class       volVectorField;
    location    "0.4";
    object      U;
}
// * * * * * * * * * * * * * * * * * * * * * * * * * * * * * * * * * * * * * //

dimensions      [0 1 -1 0 0 0 0];

internalField   nonuniform List<vector> 
12225
(
(9.80803 -0.0618521 0)
(9.46916 -0.0360922 0)
(9.2392 -0.00450285 0)
(8.98679 0.0339709 0)
(8.65292 0.0543683 0)
(8.29921 0.0468718 0)
(7.96187 0.0322323 0)
(7.64185 0.0260269 0)
(7.3341 0.0257974 0)
(7.05161 0.0240029 0)
(6.8073 0.0179037 0)
(6.61132 0.0117713 0)
(6.44176 0.0150554 0)
(6.26634 0.0230573 0)
(6.08411 0.0315104 0)
(5.87707 0.0465392 0)
(5.63255 0.0589933 0)
(5.4478 0.0499097 0)
(10.0218 0.124988 0)
(9.98082 0.0789006 0)
(9.93017 0.0400855 0)
(9.91521 0.0539893 0)
(9.98772 0.08079 0)
(10.098 0.104139 0)
(10.173 0.124214 0)
(10.1746 0.137637 0)
(10.1055 0.138796 0)
(9.99884 0.127457 0)
(9.89314 0.110123 0)
(9.80858 0.0939765 0)
(9.75033 0.0868507 0)
(9.71087 0.0899811 0)
(9.67747 0.0978553 0)
(9.63713 0.112252 0)
(9.59368 0.130934 0)
(9.55493 0.173545 0)
(9.91134 -0.00230807 0)
(9.84898 0.0975962 0)
(9.73336 0.146083 0)
(9.72411 0.105688 0)
(9.78441 0.0482491 0)
(9.85806 0.0174523 0)
(9.92505 0.0211997 0)
(9.99421 0.0472264 0)
(10.0703 0.0756195 0)
(10.144 0.0899892 0)
(10.2017 0.0878158 0)
(10.2302 0.0760279 0)
(10.2262 0.0660302 0)
(10.199 0.0669622 0)
(10.1625 0.0764495 0)
(10.1283 0.0935377 0)
(10.1071 0.120458 0)
(10.1176 0.177178 0)
(9.76364 0.113633 0)
(9.91162 0.0476448 0)
(9.98353 0.0187837 0)
(10.0095 0.0177156 0)
(10.0305 0.0377197 0)
(10.0504 0.0660939 0)
(10.0513 0.0924098 0)
(10.0348 0.10855 0)
(10.0177 0.109729 0)
(10.0105 0.0979632 0)
(10.0133 0.0832492 0)
(10.0224 0.0755518 0)
(10.0321 0.0790523 0)
(10.0401 0.0925506 0)
(10.0471 0.106631 0)
(10.0596 0.123341 0)
(10.0775 0.144169 0)
(10.123 0.180602 0)
(10.2659 0.0167808 0)
(10.1563 0.0374159 0)
(10.0538 0.0843247 0)
(10.0231 0.0588209 0)
(10.0194 0.0125208 0)
(10.0101 -0.00592219 0)
(9.99867 0.00984169 0)
(9.99704 0.0393269 0)
(10.0087 0.0618672 0)
(10.0272 0.0701826 0)
(10.0423 0.0699191 0)
(10.0503 0.0702624 0)
(10.0486 0.0752209 0)
(10.0415 0.086487 0)
(10.0328 0.0993325 0)
(10.0311 0.113145 0)
(10.0367 0.125259 0)
(10.0696 0.143521 0)
(9.82058 -0.0169117 0)
(9.87385 0.0606856 0)
(9.93566 0.105507 0)
(9.97895 0.0879716 0)
(9.96712 0.0761936 0)
(9.92832 0.0848246 0)
(9.90858 0.099808 0)
(9.92582 0.108549 0)
(9.96615 0.10659 0)
(10.0031 0.096198 0)
(10.0192 0.0842882 0)
(10.0161 0.077477 0)
(10.0054 0.0779983 0)
(9.99835 0.0863746 0)
(10.0021 0.0974864 0)
(10.0171 0.108612 0)
(10.0438 0.118322 0)
(10.0794 0.126147 0)
(10.1181 -0.0232897 0)
(9.99678 0.0569131 0)
(9.90668 0.0512019 0)
(9.91209 0.0213849 0)
(9.97314 0.00480392 0)
(10.0286 0.00543666 0)
(10.0663 0.0151357 0)
(10.0995 0.0277461 0)
(10.1315 0.0407556 0)
(10.1508 0.0525525 0)
(10.1488 0.0625806 0)
(10.1315 0.0717013 0)
(10.1125 0.0803141 0)
(10.1027 0.0886311 0)
(10.1085 0.095034 0)
(10.129 0.0980677 0)
(10.1601 0.0969893 0)
(10.1965 0.0888576 0)
(10.13 0.071436 0)
(10.0485 0.16055 0)
(10.0914 0.0931791 0)
(10.1052 0.0402254 0)
(10.0613 0.0378808 0)
(10.0125 0.0552581 0)
(9.99362 0.0675211 0)
(10.0065 0.0728116 0)
(10.0374 0.0781276 0)
(10.0692 0.086021 0)
(10.0884 0.0938402 0)
(10.0919 0.0983159 0)
(10.0835 0.0978181 0)
(10.0707 0.0931813 0)
(10.0614 0.0878555 0)
(10.0632 0.0829357 0)
(10.0753 0.0786285 0)
(10.1012 0.0738889 0)
(9.79482 0.027251 0)
(9.99948 0.0670402 0)
(10.002 0.085374 0)
(9.8837 0.080176 0)
(9.79641 0.057331 0)
(9.78132 0.028863 0)
(9.79749 0.0076488 0)
(9.81951 -0.000465953 0)
(9.85042 0.00620438 0)
(9.89814 0.0251258 0)
(9.96495 0.050838 0)
(10.0445 0.076892 0)
(10.1243 0.0973791 0)
(10.1878 0.107809 0)
(10.2214 0.106327 0)
(10.2251 0.0937668 0)
(10.2012 0.0738428 0)
(10.1678 0.0479622 0)
(9.94533 -0.0639977 0)
(9.9746 0.0432395 0)
(10.0425 0.0925437 0)
(10.1009 0.0849016 0)
(10.1623 0.071241 0)
(10.2078 0.0685684 0)
(10.2118 0.072494 0)
(10.1732 0.0724731 0)
(10.1167 0.0612803 0)
(10.0706 0.0387398 0)
(10.0514 0.0126775 0)
(10.06 -0.00535186 0)
(10.0851 -0.00680636 0)
(10.1114 0.0112202 0)
(10.1236 0.0426582 0)
(10.1174 0.0772432 0)
(10.0925 0.103788 0)
(10.0602 0.110286 0)
(9.97237 0.0409422 0)
(9.98962 0.0580076 0)
(10.0524 0.0525779 0)
(10.047 0.0329432 0)
(9.99844 0.0089949 0)
(9.98713 -0.00449231 0)
(10.0314 -0.000445235 0)
(10.105 0.0161367 0)
(10.1771 0.0348935 0)
(10.2258 0.0497298 0)
(10.2397 0.0622153 0)
(10.2204 0.0768898 0)
(10.1765 0.0951112 0)
(10.1222 0.115164 0)
(10.0709 0.132178 0)
(10.03 0.140023 0)
(10.0047 0.134673 0)
(9.98808 0.111914 0)
(9.89925 0.0536049 0)
(9.90081 -0.0186703 0)
(9.90231 0.0457662 0)
(9.90566 0.0896845 0)
(9.91708 0.0718102 0)
(9.94313 0.0311663 0)
(9.96785 0.00721732 0)
(9.9721 0.0059864 0)
(9.95503 0.0130996 0)
(9.93174 0.018212 0)
(9.91858 0.0224667 0)
(9.92338 0.0317675 0)
(9.94387 0.04823 0)
(9.9717 0.0691684 0)
(10.0023 0.0909061 0)
(10.0285 0.106253 0)
(10.0493 0.114362 0)
(10.0576 0.108591 0)
(10.1254 -0.0141506 0)
(9.95648 0.034933 0)
(9.90836 0.0860988 0)
(9.98423 0.106398 0)
(10.0612 0.0753039 0)
(10.0834 0.0329255 0)
(10.0624 0.0193275 0)
(10.0308 0.034685 0)
(10.0073 0.0536447 0)
(9.99399 0.0589469 0)
(9.98604 0.0535803 0)
(9.97956 0.0496332 0)
(9.97401 0.0559745 0)
(9.96788 0.072619 0)
(9.9646 0.0946914 0)
(9.96274 0.115088 0)
(9.9658 0.127545 0)
(9.9697 0.129319 0)
(9.90455 0.108923 0)
(9.86724 0.0465649 0)
(9.87035 -0.0432243 0)
(9.91507 -0.0680913 0)
(9.97331 -0.063268 0)
(10.0107 -0.0402908 0)
(10.0268 -0.00868233 0)
(10.0351 0.0187421 0)
(10.0384 0.0349348 0)
(10.0326 0.042407 0)
(10.0185 0.0494732 0)
(10.0018 0.0613148 0)
(9.99037 0.0781913 0)
(9.98859 0.0943805 0)
(9.99894 0.105721 0)
(10.018 0.10692 0)
(10.0426 0.0989061 0)
(10.0642 0.0811468 0)
(10.0412 0.126748 0)
(10.0003 0.0507546 0)
(9.94883 0.0855251 0)
(9.93826 0.113821 0)
(9.92916 0.0926038 0)
(9.91378 0.0530005 0)
(9.8989 0.0291486 0)
(9.89678 0.0286141 0)
(9.91163 0.0400204 0)
(9.93862 0.0489727 0)
(9.97169 0.0489463 0)
(10.003 0.0418453 0)
(10.0268 0.0342578 0)
(10.0391 0.0318107 0)
(10.0403 0.0381148 0)
(10.0345 0.052967 0)
(10.0225 0.0735592 0)
(10.0116 0.0966588 0)
(9.93226 0.0966995 0)
(9.9282 0.0368761 0)
(9.88391 -0.0354374 0)
(9.89229 -0.0696932 0)
(9.97622 -0.0828316 0)
(10.0653 -0.0551865 0)
(10.1022 -0.003141 0)
(10.0895 0.0328022 0)
(10.0598 0.0362547 0)
(10.0396 0.0227774 0)
(10.0365 0.0185408 0)
(10.041 0.0378602 0)
(10.0387 0.0767575 0)
(10.0208 0.120906 0)
(9.98818 0.152131 0)
(9.95003 0.163318 0)
(9.91528 0.151247 0)
(9.89217 0.123587 0)
(10.0706 -0.0114568 0)
(10.0235 0.131101 0)
(9.99641 0.129172 0)
(9.97189 0.0456473 0)
(9.92027 -0.0332259 0)
(9.88056 -0.0509111 0)
(9.86702 -0.0133736 0)
(9.87887 0.0306183 0)
(9.90096 0.045114 0)
(9.91524 0.0308397 0)
(9.91676 0.0109067 0)
(9.91439 0.00681547 0)
(9.91748 0.0254946 0)
(9.93162 0.0595844 0)
(9.95549 0.0949451 0)
(9.9835 0.119836 0)
(10.0097 0.130405 0)
(10.0241 0.126901 0)
(9.78802 -0.192064 0)
(9.85524 -0.0356347 0)
(9.90612 0.0321235 0)
(9.95718 0.00147033 0)
(9.96211 -0.0123318 0)
(9.94734 0.00461716 0)
(9.94027 0.0272279 0)
(9.94684 0.0382705 0)
(9.95991 0.0386166 0)
(9.96769 0.0400591 0)
(9.96368 0.0496979 0)
(9.95166 0.0646579 0)
(9.94041 0.0773082 0)
(9.9368 0.0840064 0)
(9.94275 0.0867317 0)
(9.9547 0.0896342 0)
(9.96797 0.097917 0)
(9.97498 0.112902 0)
(10.0134 0.0141041 0)
(10.0332 -0.00470475 0)
(10.0723 0.0129863 0)
(10.11 0.0220052 0)
(10.0863 0.0155903 0)
(10.0262 -0.00720991 0)
(9.99199 -0.0322178 0)
(9.99192 -0.0418055 0)
(10.0027 -0.0296487 0)
(10.0106 -0.00340957 0)
(10.0144 0.0228904 0)
(10.0161 0.0392728 0)
(10.0171 0.0438309 0)
(10.0183 0.0411774 0)
(10.0222 0.0398082 0)
(10.0289 0.0459738 0)
(10.0392 0.0636638 0)
(10.0494 0.0925643 0)
(10.1542 0.159103 0)
(10.1464 -0.0339981 0)
(10.0311 -0.0658561 0)
(9.99703 -0.0086807 0)
(10.0181 0.05127 0)
(10.0442 0.0839963 0)
(10.0504 0.0774713 0)
(10.04 0.045894 0)
(10.0225 0.0183734 0)
(10.0047 0.0131513 0)
(9.99273 0.0281095 0)
(9.98943 0.0490442 0)
(9.99255 0.0633823 0)
(9.99643 0.0654113 0)
(9.99915 0.0593731 0)
(10.0031 0.0548685 0)
(10.0113 0.0592796 0)
(10.0279 0.0817442 0)
(10.0287 -0.0004468 0)
(9.99361 0.055809 0)
(10.0095 0.0327843 0)
(10.0054 0.0209451 0)
(10.0156 0.0220178 0)
(10.0361 0.0152307 0)
(10.0433 0.00375833 0)
(10.027 0.00284144 0)
(9.98616 0.0170225 0)
(9.93205 0.0373465 0)
(9.88817 0.0531893 0)
(9.8731 0.0595567 0)
(9.88835 0.0574512 0)
(9.92273 0.0495119 0)
(9.96084 0.0361799 0)
(9.9928 0.021266 0)
(10.0135 0.00593381 0)
(10.0228 -0.000597012 0)
(9.97077 0.0459642 0)
(10.0696 0.0856284 0)
(10.0308 0.0617105 0)
(10.0025 0.0186559 0)
(10.0126 -0.0027039 0)
(10.0432 0.00859842 0)
(10.0687 0.0565397 0)
(10.0804 0.118434 0)
(10.0808 0.157026 0)
(10.0787 0.150215 0)
(10.0862 0.102371 0)
(10.1117 0.0361469 0)
(10.1544 -0.0224592 0)
(10.2066 -0.054255 0)
(10.2585 -0.05257 0)
(10.2993 -0.0234944 0)
(10.3243 0.0225122 0)
(10.3268 0.0690112 0)
(9.99111 0.0453825 0)
(9.86557 -0.00215219 0)
(9.87376 -0.0177717 0)
(9.90813 -0.0024022 0)
(9.91446 0.0113482 0)
(9.89552 0.00192926 0)
(9.87639 -0.00803544 0)
(9.87955 0.00226602 0)
(9.90506 0.0233614 0)
(9.9375 0.0331863 0)
(9.96318 0.0187836 0)
(9.979 -0.0174757 0)
(9.9898 -0.0615266 0)
(10.0025 -0.0968133 0)
(10.0246 -0.110049 0)
(10.0597 -0.0971914 0)
(10.1068 -0.0609768 0)
(10.1631 -0.00914121 0)
(9.78848 0.031354 0)
(9.93954 0.0456073 0)
(9.9867 0.0538385 0)
(9.99203 0.0161231 0)
(9.98085 -0.010386 0)
(9.97706 -0.00316769 0)
(9.98062 0.030978 0)
(9.99142 0.0700033 0)
(10.0152 0.0914803 0)
(10.0513 0.084519 0)
(10.0899 0.0517258 0)
(10.1194 0.00420297 0)
(10.1319 -0.0435876 0)
(10.1258 -0.0800361 0)
(10.1026 -0.0988524 0)
(10.0705 -0.0985948 0)
(10.0361 -0.0824524 0)
(10.0094 -0.0516653 0)
(9.91732 -0.0588183 0)
(9.98984 -0.0912307 0)
(10.0527 -0.0336295 0)
(10.0983 0.0246963 0)
(10.1007 0.0467152 0)
(10.095 0.036591 0)
(10.1122 0.0163558 0)
(10.1465 0.00258284 0)
(10.1732 -0.00478389 0)
(10.175 -0.0155199 0)
(10.1535 -0.0361184 0)
(10.1234 -0.063665 0)
(10.1001 -0.0885774 0)
(10.0917 -0.0999148 0)
(10.0966 -0.0917334 0)
(10.1085 -0.0659665 0)
(10.1217 -0.0288515 0)
(10.1316 0.0109718 0)
(9.73445 -0.104035 0)
(9.6485 -0.0883391 0)
(9.67177 -0.0493923 0)
(9.79064 -0.019136 0)
(9.90136 -0.0152169 0)
(9.96325 -0.0306414 0)
(9.99993 -0.0332417 0)
(10.0497 -0.00528995 0)
(10.1206 0.0404187 0)
(10.1907 0.0762075 0)
(10.2325 0.0815918 0)
(10.2323 0.0540517 0)
(10.1962 0.00657521 0)
(10.1428 -0.0412787 0)
(10.0925 -0.0732443 0)
(10.0596 -0.082748 0)
(10.0493 -0.0711256 0)
(10.0616 -0.0454784 0)
(10.0744 -0.0682681 0)
(10.0574 -0.129193 0)
(10.0161 -0.107475 0)
(10.0674 -0.0712997 0)
(10.1148 -0.0212568 0)
(10.0879 0.00372066 0)
(10.0261 -0.00962527 0)
(9.99403 -0.0390008 0)
(10.0161 -0.0574826 0)
(10.077 -0.0562123 0)
(10.1436 -0.0435349 0)
(10.1867 -0.0326318 0)
(10.1944 -0.0314826 0)
(10.1713 -0.0398297 0)
(10.133 -0.0510878 0)
(10.0973 -0.0576917 0)
(10.0752 -0.0557056 0)
(10.075 -0.0434444 0)
(9.91282 -0.0761377 0)
(9.83046 -0.0617422 0)
(9.7936 -0.0929505 0)
(9.78363 -0.0931319 0)
(9.82018 -0.0596925 0)
(9.90121 -0.0332174 0)
(9.99468 -0.0294808 0)
(10.0645 -0.0367284 0)
(10.1017 -0.0379809 0)
(10.1212 -0.0276013 0)
(10.1378 -0.0114035 0)
(10.1549 0.000961117 0)
(10.1677 0.00322201 0)
(10.1702 -0.00495275 0)
(10.1603 -0.0192327 0)
(10.1426 -0.0333234 0)
(10.1244 -0.0436152 0)
(10.1165 -0.0473681 0)
(10.0087 -0.0444855 0)
(10.0821 -0.0472747 0)
(10.126 -0.0469546 0)
(10.0664 -0.034898 0)
(10.0154 -0.0146849 0)
(10.0054 -0.0170974 0)
(10.0015 -0.0415617 0)
(9.98181 -0.0640274 0)
(9.96217 -0.0677012 0)
(9.96725 -0.0541183 0)
(10.0032 -0.0342887 0)
(10.0564 -0.0182527 0)
(10.1053 -0.0104561 0)
(10.1338 -0.0112226 0)
(10.1367 -0.0187705 0)
(10.1221 -0.0298999 0)
(10.1001 -0.0428961 0)
(10.0835 -0.0542325 0)
(9.83178 -0.00662744 0)
(9.70936 -0.102165 0)
(9.38877 -0.114946 0)
(9.13357 -0.0900277 0)
(8.98345 -0.0741083 0)
(8.87697 -0.0588287 0)
(8.76814 -0.0409297 0)
(8.63985 -0.0331329 0)
(8.49662 -0.0420493 0)
(8.3516 -0.059334 0)
(8.21757 -0.0710422 0)
(8.10524 -0.0689838 0)
(8.02071 -0.0541915 0)
(7.96366 -0.0346279 0)
(7.92115 -0.0193842 0)
(7.88076 -0.0130556 0)
(7.82757 -0.0163187 0)
(7.75919 -0.0229692 0)
(-0.112023 0.0272411 3.84659e-20)
(-0.234881 -0.016441 -3.81552e-20)
(-0.379595 -0.0759117 0)
(-0.50335 -0.136952 0)
(-0.414767 -0.188435 0)
(-0.112473 -0.314385 3.71098e-20)
(0.329063 -0.445377 0)
(0.859701 -0.529932 0)
(1.4462 -0.563554 0)
(2.05505 -0.553379 0)
(2.65447 -0.509681 -3.52464e-20)
(3.21374 -0.443639 0)
(3.71225 -0.366373 0)
(4.13916 -0.285151 0)
(4.48917 -0.20417 0)
(4.76052 -0.126127 -3.28034e-20)
(4.95463 -0.0523871 0)
(5.07104 0.0162924 0)
(5.11591 0.0800259 0)
(5.08117 0.139629 0)
(4.97085 0.196236 0)
(4.7882 0.250349 0)
(4.53635 0.301383 0)
(4.21851 0.348712 -3.04921e-20)
(3.83925 0.390188 3.03296e-20)
(3.40494 0.421407 -3.01758e-20)
(2.92636 0.434476 -3.00226e-20)
(2.42148 0.417578 0)
(1.91992 0.362674 0)
(1.45149 0.285525 2.95142e-20)
(1.03932 0.224737 2.93233e-20)
(0.680716 0.20263 0)
(0.372404 0.202782 0)
(0.0916707 0.202545 2.86709e-20)
(-0.162487 0.192496 0)
(-0.424674 0.118462 0)
(-0.611856 -0.080264 -2.78281e-20)
(-0.690098 -0.21719 0)
(-0.696486 -0.132306 -2.73387e-20)
(-0.681087 0.074879 -5.41893e-20)
(-0.658264 0.179331 0)
(-0.750863 0.134525 0)
(-1.04022 0.0198876 0)
(-1.31294 -0.0882689 0)
(-1.42482 -0.215679 0)
(-1.39171 -0.326319 -5.10776e-20)
(-1.20556 -0.368005 -5.06346e-20)
(-0.943645 -0.410157 -5.02172e-20)
(-0.626945 -0.438627 0)
(-0.249669 -0.456962 4.93733e-20)
(0.145442 -0.464132 0)
(0.567982 -0.458481 -4.83249e-20)
(0.997363 -0.444577 -4.77204e-20)
(1.42608 -0.4206 0)
(1.85063 -0.394862 0)
(2.26674 -0.369362 0)
(2.67693 -0.335426 -4.50327e-20)
(3.07357 -0.2837 0)
(3.43105 -0.225111 0)
(3.73004 -0.170505 0)
(3.97233 -0.106279 0)
(4.14321 -0.0369967 0)
(4.21581 0.0119878 0)
(4.17403 0.0586176 0)
(4.04346 0.109122 0)
(3.83705 0.121391 3.95829e-20)
(3.56284 0.056628 0)
(3.27521 -0.116883 0)
(3.07372 -0.2979 -3.85589e-20)
(2.9906 -0.262973 -3.8243e-20)
(2.9564 -0.0225816 0)
(2.93521 0.158777 3.75361e-20)
(2.88847 0.197588 -3.71091e-20)
(2.72526 0.183399 0)
(2.56364 0.0800577 3.60383e-20)
(2.59127 -0.136077 0)
(2.84719 -0.340173 0)
(3.26938 -0.41439 -3.42139e-20)
(3.72095 -0.371092 0)
(4.0429 -0.251767 3.31539e-20)
(4.18645 -0.0651355 0)
(4.11804 0.0593203 -3.27983e-20)
(3.75977 0.0301642 -3.29187e-20)
(3.0837 0.0690052 -3.31865e-20)
(2.10834 0.328737 -6.70226e-20)
(1.00027 0.501148 6.75347e-20)
(0.0522579 0.436005 0)
(-0.529509 0.312502 0)
(-0.892905 0.120788 0)
(-1.59418 0.0564949 6.56023e-20)
(-2.52479 0.87297 6.50344e-20)
(-5.87396 2.03198 -6.31932e-20)
(-9.66002 1.07634 0)
(-10.8042 0.461196 5.53825e-20)
(-12.1038 0.560823 5.20699e-20)
(-12.9165 0.175242 4.91107e-20)
(-13.3268 0.225429 0)
(-13.8346 0.14957 0)
(-14.0504 0.0973443 0)
(-14.3349 0.123181 4.131e-20)
(-14.5214 0.0543829 0)
(-14.6599 0.0564621 0)
(-14.7576 0.0135977 -3.7938e-20)
(-14.745 -0.026256 0)
(-14.6831 -0.0518107 0)
(-14.5297 -0.0944502 -3.71725e-20)
(-14.2987 -0.120875 0)
(-13.9983 -0.1496 0)
(-13.6251 -0.17413 3.89354e-20)
(-13.2058 -0.189505 3.988e-20)
(-12.7423 -0.206028 0)
(-12.2415 -0.216297 -4.19692e-20)
(-11.719 -0.219805 0)
(-11.1814 -0.222276 4.40089e-20)
(-10.6325 -0.223558 0)
(-10.0776 -0.222706 4.57478e-20)
(-9.52165 -0.220055 4.64589e-20)
(-8.96918 -0.215953 0)
(-8.42433 -0.210564 0)
(-7.89092 -0.203997 0)
(-7.37199 -0.19656 0)
(-6.86956 -0.188644 0)
(-6.38468 -0.180619 0)
(-5.91748 -0.172844 0)
(-5.46737 -0.165606 4.7898e-20)
(-5.03319 -0.15908 -4.7657e-20)
(-4.61347 -0.153354 0)
(-4.20659 -0.148442 0)
(-3.81103 -0.144302 0)
(-3.4255 -0.140896 0)
(-3.04903 -0.138231 -9.16989e-20)
(-2.681 -0.136402 0)
(-2.32134 -0.135586 8.99662e-20)
(-1.97097 -0.13601 -8.90654e-20)
(-1.63167 -0.137813 0)
(-1.30568 -0.140509 0)
(-0.994444 -0.142496 0)
(-0.695446 -0.141225 8.52284e-20)
(-0.400315 -0.135032 8.42172e-20)
(-0.104855 -0.1231 0)
(0.199141 -0.112337 8.21205e-20)
(0.504079 -0.105533 8.10345e-20)
(0.811877 -0.10449 -7.99549e-20)
(1.12715 -0.105782 0)
(1.45515 -0.10735 0)
(1.79899 -0.108257 -7.67669e-20)
(2.15765 -0.107723 0)
(2.52621 -0.105215 0)
(2.89819 -0.100759 0)
(3.26867 -0.0949023 0)
(3.63511 -0.0878791 7.11859e-20)
(3.99298 -0.0772027 7.00145e-20)
(4.32417 -0.0565862 0)
(4.59005 -0.0239539 6.76538e-20)
(4.75433 0.00389381 0)
(4.83581 -0.00460659 0)
(4.92921 -0.0566827 6.41847e-20)
(5.13851 -0.0964857 0)
(5.43019 -0.0391101 6.20083e-20)
(5.5539 0.106756 0)
(5.3302 0.215968 0)
(4.87591 0.187652 5.8778e-20)
(4.46595 0.0182548 0)
(4.33061 -0.197573 5.67094e-20)
(4.57421 -0.245554 0)
(4.87815 0.0171108 0)
(4.58246 0.299667 0)
(3.77036 0.26126 -5.3095e-20)
(3.04604 0.050281 0)
(2.6273 -0.0760084 5.0667e-20)
(2.4647 -0.0882739 0)
(2.46575 -0.0569458 0)
(2.51337 -0.026856 0)
(2.51722 -0.0111138 0)
(2.4642 -4.32608e-05 0)
(2.36273 0.0036728 0)
(2.27199 0.010122 0)
(2.16886 0.00670673 -8.65858e-20)
(2.14995 0.017891 0)
(1.99332 0.034716 0)
(-0.0351471 0.385372 -1.15387e-19)
(-0.0858562 0.3799 1.14536e-19)
(-0.13437 0.360574 0)
(0.0316778 0.122753 -7.51854e-20)
(0.524322 -0.467705 0)
(1.13118 -1.06012 -3.69486e-20)
(1.77106 -1.50712 7.29135e-20)
(2.40338 -1.77162 7.2094e-20)
(3.00712 -1.87135 0)
(3.56903 -1.84382 7.03284e-20)
(4.08002 -1.7282 3.50407e-20)
(4.53392 -1.55641 0)
(4.92803 -1.3517 0)
(5.26126 -1.13043 0)
(5.53337 -0.903209 0)
(5.74614 -0.676405 3.26966e-20)
(5.90028 -0.453433 0)
(5.99951 -0.236798 -6.33495e-20)
(6.04146 -0.0270683 0)
(6.03683 0.17411 0)
(5.98724 0.365274 6.15836e-20)
(5.8931 0.545362 0)
(5.75469 0.713625 -6.06869e-20)
(5.57187 0.86929 3.03624e-20)
(5.34479 1.01066 -3.01858e-20)
(5.07267 1.13408 3.00177e-20)
(4.7547 1.23246 2.98515e-20)
(4.38703 1.29491 0)
(3.96793 1.30768 0)
(3.49418 1.25988 -2.93316e-20)
(2.97846 1.14685 2.8999e-20)
(2.45083 0.985331 0)
(1.96724 0.819429 0)
(1.54965 0.69399 -2.85562e-20)
(1.2075 0.612245 0)
(0.902143 0.548756 0)
(0.614093 0.470039 2.78742e-20)
(0.315249 0.38067 0)
(-0.048216 0.261031 -2.74321e-20)
(-0.435332 0.0581342 5.42847e-20)
(-0.745392 -0.0334487 0)
(-0.845741 0.201436 0)
(-0.829944 0.395958 1.05216e-19)
(-0.753875 0.19884 1.0424e-19)
(-0.548341 -0.101351 1.03291e-19)
(-0.374739 -0.305779 -5.11841e-20)
(-0.108594 -0.584567 5.07315e-20)
(0.188082 -0.765986 1.50801e-19)
(0.50711 -0.866094 -9.95173e-20)
(0.8829 -0.939695 -4.92775e-20)
(1.25478 -0.985574 0)
(1.63001 -1.00565 4.81774e-20)
(1.99612 -1.01009 -4.73969e-20)
(2.37088 -0.992083 0)
(2.74552 -0.960278 0)
(3.11452 -0.925057 0)
(3.46917 -0.887984 4.49275e-20)
(3.81598 -0.817133 0)
(4.1487 -0.700968 -8.66925e-20)
(4.44644 -0.571044 0)
(4.70315 -0.431501 -8.38569e-20)
(4.91514 -0.244955 0)
(5.04245 -0.0294785 8.14048e-20)
(5.09886 0.156186 0)
(5.12376 0.324652 -7.94679e-20)
(5.05953 0.476915 3.91894e-20)
(4.85487 0.568953 0)
(4.61445 0.635835 7.74369e-20)
(4.39664 0.613522 3.84553e-20)
(4.15755 0.344602 3.81536e-20)
(3.93312 0.00127311 0)
(3.79366 -0.131796 3.76801e-20)
(3.65039 0.000489371 3.70518e-20)
(3.42231 0.292463 0)
(3.42301 0.322617 -3.59814e-20)
(3.77374 -0.113426 7.08271e-20)
(4.16633 -0.620391 0)
(4.41188 -0.797402 3.41282e-20)
(4.55475 -0.639928 0)
(4.54868 -0.374193 -9.87724e-20)
(4.23104 0.000548151 0)
(3.664 0.551171 9.76435e-20)
(2.95979 1.12386 3.29247e-20)
(2.15688 1.54077 -3.25649e-20)
(1.25641 1.7439 -6.59523e-20)
(0.304715 1.68185 6.67435e-20)
(-0.522294 1.31806 0)
(-1.25059 0.863571 0)
(-2.6701 1.17545 0)
(-5.83828 3.04273 -1.92748e-19)
(-8.65827 4.24828 -6.42871e-20)
(-10.2671 3.41076 6.26204e-20)
(-11.5108 2.1207 0)
(-11.7711 1.50354 5.12545e-20)
(-12.2592 1.04021 -5.19955e-20)
(-12.4981 0.625007 -4.91014e-20)
(-12.7429 0.50182 0)
(-12.9605 0.349188 0)
(-13.1115 0.281663 0)
(-13.3075 0.239475 -4.1363e-20)
(-13.4101 0.160591 0)
(-13.5386 0.105737 7.71621e-20)
(-13.5814 0.0168003 1.13385e-19)
(-13.564 -0.0819646 -7.42418e-20)
(-13.492 -0.175583 0)
(-13.3242 -0.277352 -3.66262e-20)
(-13.0883 -0.372172 0)
(-12.7714 -0.457698 -7.58499e-20)
(-12.3874 -0.52784 3.85463e-20)
(-11.9565 -0.579943 3.9556e-20)
(-11.4855 -0.6211 0)
(-10.9835 -0.651111 1.25786e-19)
(-10.4594 -0.668978 -8.59153e-20)
(-9.9218 -0.677802 -4.40508e-20)
(-9.3762 -0.680398 0)
(-8.82614 -0.677688 -4.57901e-20)
(-8.27657 -0.669464 -1.3942e-19)
(-7.73261 -0.656134 0)
(-7.19854 -0.638579 -9.50569e-20)
(-6.67848 -0.617405 -9.57421e-20)
(-6.17562 -0.593777 -9.61781e-20)
(-5.69174 -0.56904 0)
(-5.22758 -0.544282 0)
(-4.78284 -0.520415 0)
(-4.3565 -0.498093 4.78759e-20)
(-3.94714 -0.477668 4.76972e-20)
(-3.5531 -0.459316 0)
(-3.17253 -0.443072 9.40486e-20)
(-2.80376 -0.428766 9.33044e-20)
(-2.4453 -0.416104 0)
(-2.09597 -0.40474 9.17658e-20)
(-1.75484 -0.394461 1.8166e-19)
(-1.4213 -0.385332 -9.00275e-20)
(-1.09568 -0.377724 -8.89868e-20)
(-0.778735 -0.372277 0)
(-0.471771 -0.369074 0)
(-0.176952 -0.366646 0)
(0.10472 -0.36167 -8.52556e-20)
(0.381745 -0.352597 8.41057e-20)
(0.652863 -0.339074 1.66151e-19)
(0.923063 -0.327585 -8.20394e-20)
(1.19627 -0.322492 8.08653e-20)
(1.47552 -0.325267 7.98823e-20)
(1.7625 -0.33393 0)
(2.0601 -0.344812 0)
(2.37054 -0.354683 -7.66079e-20)
(2.69263 -0.360646 0)
(3.02161 -0.361088 0)
(3.35019 -0.356776 1.4678e-19)
(3.67233 -0.350085 0)
(3.98841 -0.34131 7.10541e-20)
(4.30426 -0.324004 -6.99754e-20)
(4.61923 -0.285621 0)
(4.91333 -0.219489 6.75677e-20)
(5.14801 -0.141721 0)
(5.28014 -0.0943193 0)
(5.29421 -0.117349 -6.41657e-20)
(5.265 -0.192756 1.26109e-19)
(5.37156 -0.218319 -6.19976e-20)
(5.72849 -0.102499 0)
(6.15545 0.106987 0)
(6.40189 0.270574 5.8625e-20)
(6.39051 0.286218 0)
(6.04026 0.129275 5.66762e-20)
(5.44678 -0.0843359 0)
(5.164 -0.107295 0)
(5.39841 0.128659 0)
(5.8459 0.402579 5.29953e-20)
(6.15331 0.508138 0)
(5.95975 0.395503 -5.05172e-20)
(5.37289 0.188216 0)
(4.82469 0.0450228 0)
(4.47807 0.0132075 9.6027e-20)
(4.22699 0.044398 -9.42805e-20)
(3.96892 0.0834183 0)
(3.68314 0.0925461 0)
(3.45258 0.0798685 0)
(3.27394 0.0514784 2.59465e-19)
(3.22063 0.0550522 0)
(3.08244 0.0696018 -1.65919e-19)
(0.00379913 0.428847 -8.29889e-24)
(0.0223186 0.53934 -1.52685e-19)
(0.272721 0.122883 0)
(0.991357 -0.971848 1.4966e-19)
(1.7958 -2.01171 0)
(2.53983 -2.75018 0)
(3.17343 -3.15767 -5.49206e-22)
(3.69142 -3.28642 -7.16947e-20)
(4.11056 -3.21321 -7.00737e-20)
(4.45388 -3.0109 -7.00564e-20)
(4.74176 -2.73541 0)
(4.98871 -2.42397 0)
(5.204 -2.09918 6.65164e-20)
(5.39146 -1.77341 1.31337e-19)
(5.55302 -1.45395 -1.29711e-19)
(5.68938 -1.14366 0)
(5.80122 -0.843696 -1.26738e-19)
(5.88666 -0.552794 6.33555e-20)
(5.94583 -0.271866 0)
(5.97465 0.000988729 -1.23021e-19)
(5.9714 0.265673 -6.15748e-20)
(5.93681 0.520649 1.20974e-19)
(5.87206 0.764184 6.064e-20)
(5.77728 0.994807 0)
(5.65162 1.21125 -1.18614e-19)
(5.49294 1.41106 -1.17966e-19)
(5.2988 1.58909 0)
(5.06377 1.73709 -1.16811e-19)
(4.78203 1.84372 0)
(4.44653 1.89647 -1.15774e-19)
(4.058 1.88167 -5.79257e-20)
(3.62168 1.78863 0)
(3.1591 1.6206 0)
(2.70124 1.40968 0)
(2.29227 1.19996 0)
(1.95192 1.02065 0)
(1.66713 0.88566 0)
(1.4136 0.800109 -1.10355e-19)
(1.16833 0.752285 1.64138e-19)
(0.91407 0.681822 0)
(0.683924 0.554741 0)
(0.493351 0.390288 0)
(0.422799 0.200529 1.45293e-22)
(0.436881 -0.0354805 -1.04327e-19)
(0.547627 -0.315735 -2.06736e-19)
(0.662309 -0.660643 2.04682e-19)
(0.844472 -0.959397 1.0141e-19)
(1.05343 -1.17081 -1.00277e-19)
(1.28116 -1.29265 -4.21091e-23)
(1.49881 -1.36094 -9.82482e-20)
(1.70799 -1.3968 0)
(1.91143 -1.41115 -9.59623e-20)
(2.09095 -1.41694 1.45829e-22)
(2.29009 -1.41158 0)
(2.46744 -1.40853 0)
(2.68855 -1.3907 9.0841e-20)
(2.90712 -1.36331 0)
(3.15134 -1.30028 0)
(3.40961 -1.2013 -8.62119e-20)
(3.67207 -1.08268 -1.70026e-19)
(3.9459 -0.931418 8.39395e-20)
(4.21793 -0.701811 0)
(4.43063 -0.413158 -8.14839e-20)
(4.54533 -0.162667 0)
(4.63443 0.0631587 -7.86326e-20)
(4.75116 0.361569 -7.87044e-20)
(4.78821 0.631607 1.55359e-19)
(4.67295 0.643628 7.71109e-20)
(4.48706 0.44524 0)
(4.21103 0.38246 -1.52986e-19)
(3.76782 0.527219 0)
(3.35226 0.590913 -2.26123e-19)
(3.14889 0.56271 -1.49425e-19)
(3.27983 0.410882 -1.47509e-19)
(3.72768 -0.160966 1.45111e-19)
(4.01057 -0.786916 -2.12954e-19)
(3.88317 -0.989932 0)
(3.47081 -0.719673 0)
(2.96063 -0.072583 1.32628e-19)
(2.6276 0.556018 1.95867e-19)
(2.46533 1.00599 0)
(2.20589 1.42326 -6.49423e-20)
(1.72987 1.8546 0)
(1.07571 2.28121 1.95608e-19)
(0.351004 2.53116 1.67837e-21)
(-0.423755 2.4041 -1.48112e-21)
(-1.45118 2.16601 -1.32909e-19)
(-2.92364 2.40764 0)
(-5.58152 3.95334 1.28137e-19)
(-8.70528 5.71751 3.9887e-21)
(-10.0996 5.61831 0)
(-10.0166 3.991 0)
(-10.2419 2.83371 0)
(-10.347 2.1257 -1.0662e-19)
(-10.4063 1.38439 0)
(-10.6303 0.975984 0)
(-10.8016 0.750559 0)
(-10.9837 0.533336 0)
(-11.2233 0.467558 0)
(-11.444 0.388551 -8.16864e-20)
(-11.6715 0.305879 0)
(-11.8899 0.224845 -7.73283e-20)
(-12.0287 0.0785735 -7.55423e-20)
(-12.0913 -0.0678703 7.43925e-20)
(-12.0631 -0.228119 0)
(-11.9435 -0.401802 7.3972e-20)
(-11.7327 -0.564177 0)
(-11.4246 -0.719002 7.59509e-20)
(-11.0421 -0.846702 -7.76219e-20)
(-10.6065 -0.943075 -2.37503e-19)
(-10.1259 -1.01945 0)
(-9.60944 -1.074 -2.50774e-19)
(-9.07034 -1.10531 -8.53467e-20)
(-8.51957 -1.11931 0)
(-7.96173 -1.122 -1.79385e-19)
(-7.39917 -1.11589 -1.82803e-19)
(-6.83703 -1.1006 2.78772e-19)
(-6.28159 -1.07646 0)
(-5.73789 -1.04523 9.51652e-20)
(-5.2113 -1.00764 9.58533e-20)
(-4.70639 -0.965456 2.88694e-19)
(-4.22587 -0.921209 0)
(-3.77101 -0.877056 0)
(-3.34168 -0.834886 0)
(-2.93643 -0.796083 9.57169e-20)
(-2.55323 -0.761334 0)
(-2.18979 -0.730783 0)
(-1.84348 -0.70427 -9.41544e-20)
(-1.51193 -0.68129 -9.34059e-20)
(-1.19296 -0.661102 0)
(-0.884608 -0.642654 0)
(-0.585377 -0.624652 -1.81834e-19)
(-0.293949 -0.606234 0)
(-0.0103408 -0.586907 1.78242e-19)
(0.264828 -0.566558 1.76129e-19)
(0.530309 -0.545471 0)
(0.783774 -0.523606 0)
(1.02515 -0.501019 -1.70069e-19)
(1.25714 -0.478386 -1.3184e-22)
(1.48408 -0.4586 -1.31455e-22)
(1.71109 -0.445615 0)
(1.94328 -0.442804 -3.23172e-19)
(2.18381 -0.450422 0)
(2.43561 -0.46586 0)
(2.70036 -0.484749 0)
(2.97676 -0.502219 1.53168e-19)
(3.25993 -0.513222 0)
(3.54273 -0.51339 -2.97516e-19)
(3.81668 -0.502413 -1.46668e-19)
(4.07185 -0.486833 0)
(4.30268 -0.474882 -1.42116e-19)
(4.51938 -0.462296 0)
(4.74426 -0.425479 0)
(4.98076 -0.340314 -4.05274e-19)
(5.18874 -0.214393 2.6552e-19)
(5.30903 -0.0981544 0)
(5.31422 -0.0622235 2.56512e-19)
(5.23836 -0.140264 -1.26117e-19)
(5.19195 -0.25896 0)
(5.3297 -0.264201 0)
(5.69881 -0.0963479 0)
(6.14355 0.123332 -3.51967e-19)
(6.41074 0.268016 0)
(6.24962 0.317177 -1.13241e-19)
(5.65438 0.253105 0)
(5.08987 0.113089 0)
(5.08378 0.0411749 0)
(5.68686 0.095677 0)
(6.49065 0.238102 0)
(6.93081 0.389775 0)
(6.75131 0.431353 -1.98143e-19)
(6.17319 0.34126 0)
(5.55173 0.243248 -9.59075e-20)
(5.03586 0.224786 2.82542e-19)
(4.59453 0.249546 0)
(4.20545 0.242858 0)
(3.91636 0.19113 -1.76525e-19)
(3.729 0.116965 -1.72876e-19)
(3.66071 0.0929076 1.69222e-19)
(3.5695 0.112594 1.65847e-19)
(-0.0221021 0.17815 2.30778e-19)
(0.240411 0.0105715 2.28781e-19)
(1.14845 -1.63902 1.50549e-19)
(2.05415 -3.04411 7.39397e-20)
(2.78812 -3.87803 0)
(3.29935 -4.19704 -1.44063e-19)
(3.6097 -4.15224 7.04227e-20)
(3.78021 -3.89276 0)
(3.87561 -3.53197 7.01031e-20)
(3.94357 -3.14019 0)
(4.01199 -2.75212 -1.35311e-19)
(4.0922 -2.37865 0)
(4.18416 -2.02039 -6.66847e-20)
(4.2835 -1.67634 -1.31699e-19)
(4.38572 -1.34596 1.30092e-19)
(4.48802 -1.02844 0)
(4.58743 -0.721803 1.2713e-19)
(4.68163 -0.424831 0)
(4.76622 -0.135869 0)
(4.84062 0.144185 1.23409e-19)
(4.90117 0.415617 0)
(4.94584 0.67875 -9.98089e-22)
(4.97518 0.933534 0)
(4.98987 1.17927 0)
(4.98838 1.41545 1.06578e-21)
(4.96551 1.64215 1.18029e-19)
(4.9146 1.85721 1.16291e-19)
(4.82841 2.05521 1.16755e-19)
(4.69885 2.22632 0)
(4.51604 2.3564 2.30389e-19)
(4.27416 2.42698 0)
(3.97098 2.4177 1.13908e-19)
(3.6135 2.31312 0)
(3.22175 2.11488 0)
(2.83341 1.8509 -1.12435e-19)
(2.47729 1.57877 0)
(2.17011 1.36118 1.11038e-19)
(1.90828 1.21656 -5.10587e-23)
(1.701 1.12259 -2.1857e-19)
(1.52309 1.03473 2.16824e-19)
(1.38085 0.908954 0)
(1.25873 0.728163 0)
(1.18698 0.474389 1.05853e-19)
(1.1639 0.166774 0)
(1.17629 -0.16853 1.03304e-19)
(1.19483 -0.506222 -1.02293e-19)
(1.26223 -0.771171 -1.01299e-19)
(1.2696 -1.00261 0)
(1.28587 -1.16905 9.93092e-20)
(1.22751 -1.27724 9.82845e-20)
(1.17128 -1.32755 -1.9441e-19)
(1.08849 -1.34777 9.61126e-20)
(1.05254 -1.34958 9.49508e-20)
(1.0258 -1.36692 0)
(0.995607 -1.40062 0)
(1.10877 -1.3999 -9.1113e-20)
(1.17249 -1.42168 0)
(1.34376 -1.39354 0)
(1.53003 -1.34427 1.73551e-19)
(1.75346 -1.24988 1.70589e-19)
(2.01914 -1.07601 0)
(2.28198 -0.837051 0)
(2.52875 -0.567473 0)
(2.76893 -0.328003 0)
(2.98754 -0.102338 1.58709e-19)
(3.14222 0.206254 -1.56497e-19)
(3.21104 0.557949 -1.55833e-19)
(3.206 0.794945 -3.09576e-19)
(3.13451 0.903491 0)
(2.98477 0.959893 -1.76987e-22)
(2.84725 0.887066 0)
(2.82456 0.610014 1.51079e-19)
(2.88465 0.218646 -9.54272e-22)
(2.9007 -0.230225 1.47683e-19)
(2.6595 -0.539041 -1.454e-19)
(2.1375 -0.485418 -6.35925e-22)
(1.60425 -0.15679 0)
(1.5586 0.0209509 -1.35361e-19)
(1.91608 0.0554147 -1.3289e-19)
(2.2726 0.230788 -2.57765e-19)
(2.37029 0.69057 0)
(2.12949 1.40306 1.24549e-19)
(1.59205 2.14742 0)
(0.810785 2.75276 -2.56504e-19)
(-0.136956 3.20981 1.31156e-19)
(-1.31319 3.45738 -1.32167e-19)
(-2.77341 3.69166 1.32306e-19)
(-4.81437 4.70454 2.54686e-19)
(-7.61013 6.51541 -1.27318e-19)
(-9.49657 7.14504 1.22341e-19)
(-9.36164 5.72132 0)
(-8.84734 4.01765 -2.15621e-19)
(-9.08762 3.12263 0)
(-9.04592 2.29352 -1.99492e-19)
(-9.02131 1.5949 1.92622e-19)
(-9.25265 1.2243 1.86042e-19)
(-9.38658 0.954351 -1.79822e-19)
(-9.64073 0.783258 -1.73765e-19)
(-9.97218 0.719446 0)