/*--------------------------------*- C++ -*----------------------------------*\
  =========                 |
  \\      /  F ield         | OpenFOAM: The Open Source CFD Toolbox
   \\    /   O peration     | Website:  https://openfoam.org
    \\  /    A nd           | Version:  6
     \\/     M anipulation  |
\*---------------------------------------------------------------------------*/
FoamFile
{
    version     2.0;
    format      ascii;
    class       volVectorField;
    location    "0.4";
    object      U_0;
}
// * * * * * * * * * * * * * * * * * * * * * * * * * * * * * * * * * * * * * //

dimensions      [0 1 -1 0 0 0 0];

internalField   nonuniform List<vector> 
12225
(
(9.79432 -0.0727283 0)
(9.43077 -0.0347265 0)
(9.2107 -0.0033669 0)
(8.95678 0.0350969 0)
(8.6207 0.0543431 0)
(8.26716 0.0458433 0)
(7.93042 0.0313373 0)
(7.61046 0.0257624 0)
(7.30274 0.0258696 0)
(7.02097 0.0240101 0)
(6.77794 0.0177757 0)
(6.583 0.0118448 0)
(6.41282 0.0155456 0)
(6.23547 0.0236926 0)
(6.05068 0.0323297 0)
(5.83956 0.0474883 0)
(5.59181 0.0592837 0)
(5.39044 0.0539065 0)
(9.98662 0.116721 0)
(9.93995 0.0720867 0)
(9.89355 0.0378142 0)
(9.88567 0.0546114 0)
(9.96573 0.0819967 0)
(10.0782 0.105382 0)
(10.15 0.125337 0)
(10.1462 0.138224 0)
(10.0726 0.138547 0)
(9.96432 0.126561 0)
(9.85934 0.109115 0)
(9.77641 0.0934016 0)
(9.71968 0.0870695 0)
(9.68065 0.0908936 0)
(9.64617 0.0992476 0)
(9.6038 0.114037 0)
(9.55735 0.134123 0)
(9.50931 0.18134 0)
(9.90389 -0.0205999 0)
(9.80254 0.0982286 0)
(9.6954 0.144483 0)
(9.69445 0.101273 0)
(9.7592 0.0443982 0)
(9.83371 0.0159339 0)
(9.90064 0.0220398 0)
(9.97025 0.0493276 0)
(10.0468 0.0775439 0)
(10.12 0.0908686 0)
(10.1759 0.0877624 0)
(10.2013 0.0756899 0)
(10.1937 0.0661873 0)
(10.1635 0.0680458 0)
(10.1248 0.0783207 0)
(10.0888 0.0961955 0)
(10.0656 0.125376 0)
(10.0737 0.18715 0)
(9.75854 0.0900569 0)
(9.88337 0.0391175 0)
(9.95457 0.014411 0)
(9.98041 0.0163769 0)
(10.0027 0.0383763 0)
(10.0224 0.0676005 0)
(10.0219 0.0938887 0)
(10.0043 0.109339 0)
(9.98709 0.109585 0)
(9.98041 0.0973278 0)
(9.98346 0.0830109 0)
(9.99243 0.0763242 0)
(10.0012 0.0809033 0)
(10.008 0.095068 0)
(10.0135 0.109442 0)
(10.0243 0.126786 0)
(10.0401 0.149538 0)
(10.0847 0.190323 0)
(10.2546 0.0113947 0)
(10.116 0.0355053 0)
(10.0167 0.0808435 0)
(9.9914 0.0537376 0)
(9.98956 0.0088013 0)
(9.98044 -0.00669851 0)
(9.96928 0.0113539 0)
(9.96843 0.0414532 0)
(9.98078 0.0633917 0)
(9.99923 0.0709701 0)
(10.0135 0.0706308 0)
(10.0202 0.071549 0)
(10.0169 0.0773391 0)
(10.0082 0.0893626 0)
(9.99808 0.10276 0)
(9.99483 0.117254 0)
(9.99914 0.131154 0)
(10.0322 0.153144 0)
(9.79927 -0.0145953 0)
(9.84098 0.0582146 0)
(9.90726 0.101204 0)
(9.95005 0.0845346 0)
(9.93585 0.0751388 0)
(9.89707 0.0852187 0)
(9.87972 0.10054 0)
(9.8994 0.108975 0)
(9.9404 0.106549 0)
(9.97599 0.096013 0)
(9.98989 0.0845822 0)
(9.98499 0.0787043 0)
(9.97327 0.0802829 0)
(9.96596 0.0895852 0)
(9.96949 0.101439 0)
(9.98383 0.113583 0)
(10.0096 0.125231 0)
(10.0445 0.13593 0)
(10.0913 -0.0356767 0)
(9.9551 0.0512588 0)
(9.87296 0.0448378 0)
(9.88523 0.0166011 0)
(9.94875 0.00239556 0)
(10.0037 0.00480507 0)
(10.0408 0.0155963 0)
(10.0738 0.0289168 0)
(10.105 0.0424043 0)
(10.1224 0.0545177 0)
(10.1183 0.0648381 0)
(10.0996 0.0743033 0)
(10.0802 0.0833089 0)
(10.0708 0.0920769 0)
(10.0771 0.0990671 0)
(10.0976 0.103111 0)
(10.1281 0.103767 0)
(10.164 0.097998 0)
(10.1031 0.0770521 0)
(10.0152 0.150828 0)
(10.0641 0.0832856 0)
(10.0753 0.0351207 0)
(10.0293 0.0370225 0)
(9.9816 0.0557588 0)
(9.96517 0.0680178 0)
(9.97991 0.0734685 0)
(10.0113 0.0793371 0)
(10.0422 0.0877749 0)
(10.0598 0.0958852 0)
(10.0616 0.100455 0)
(10.0517 0.100079 0)
(10.038 0.0959188 0)
(10.0285 0.0916502 0)
(10.0304 0.0883969 0)
(10.043 0.086437 0)
(10.0697 0.0842099 0)
(9.79301 0.00462316 0)
(9.97214 0.0573269 0)
(9.9688 0.0795084 0)
(9.84759 0.0759884 0)
(9.76449 0.0537663 0)
(9.75342 0.0261242 0)
(9.77089 0.00628879 0)
(9.79325 -0.000136526 0)
(9.82502 0.00821697 0)
(9.87427 0.0284962 0)
(9.94263 0.0550601 0)
(10.0228 0.0814292 0)
(10.1016 0.101798 0)
(10.1623 0.111909 0)
(10.1918 0.11031 0)
(10.1915 0.0982828 0)
(10.1647 0.0797054 0)
(10.1305 0.0558624 0)
(9.92604 -0.0890586 0)
(9.9525 0.0350359 0)
(10.0203 0.0873941 0)
(10.0783 0.0804595 0)
(10.1393 0.0686775 0)
(10.1825 0.067932 0)
(10.1828 0.0727791 0)
(10.1413 0.0726018 0)
(10.084 0.0607794 0)
(10.0391 0.037907 0)
(10.022 0.01244 0)
(10.0325 -0.00388636 0)
(10.058 -0.00279674 0)
(10.0831 0.0179966 0)
(10.0929 0.0517006 0)
(10.0841 0.0877149 0)
(10.0574 0.114678 0)
(10.0248 0.121051 0)
(9.96222 0.00661993 0)
(9.96774 0.0452604 0)
(10.0303 0.0457477 0)
(10.0184 0.0283069 0)
(9.96897 0.00575679 0)
(9.96123 -0.00567474 0)
(10.0089 0.000355378 0)
(10.0834 0.0180944 0)
(10.1543 0.0372794 0)
(10.2002 0.0524237 0)
(10.2108 0.0655833 0)
(10.1883 0.0813128 0)
(10.142 0.100706 0)
(10.0869 0.121759 0)
(10.0359 0.139337 0)
(9.99628 0.147304 0)
(9.97244 0.141759 0)
(9.95726 0.118806 0)
(9.89558 0.0109239 0)
(9.88563 -0.0294218 0)
(9.8799 0.0443856 0)
(9.88067 0.0880943 0)
(9.89196 0.0682987 0)
(9.91832 0.0283372 0)
(9.94189 0.00667528 0)
(9.94394 0.0071933 0)
(9.92521 0.0149675 0)
(9.90179 0.0204113 0)
(9.88972 0.0253996 0)
(9.89597 0.0359202 0)
(9.9175 0.0537377 0)
(9.94582 0.0759003 0)
(9.97649 0.0985171 0)
(10.0023 0.114413 0)
(10.0226 0.122848 0)
(10.03 0.117219 0)
(10.1146 -0.0103672 0)
(9.93395 0.0302849 0)
(9.88894 0.0842427 0)
(9.966 0.104064 0)
(10.0393 0.0717419 0)
(10.057 0.0307817 0)
(10.0333 0.0200811 0)
(10.0011 0.0372069 0)
(9.97811 0.0561039 0)
(9.96527 0.0607668 0)
(9.95748 0.0555266 0)
(9.95095 0.0528011 0)
(9.94529 0.0609669 0)
(9.9392 0.0793672 0)
(9.93623 0.102736 0)
(9.93492 0.123809 0)
(9.93884 0.136463 0)
(9.94372 0.138158 0)
(9.89641 0.106447 0)
(9.84734 0.0354015 0)
(9.85251 -0.0495149 0)
(9.89523 -0.0695554 0)
(9.95144 -0.0624228 0)
(9.9865 -0.037848 0)
(10.0011 -0.00559408 0)
(10.0085 0.0215515 0)
(10.011 0.0372694 0)
(10.0043 0.0448408 0)
(9.98952 0.0527438 0)
(9.97286 0.0657578 0)
(9.96224 0.0836278 0)
(9.96175 0.100348 0)
(9.97355 0.111786 0)
(9.99389 0.112816 0)
(10.0193 0.104684 0)
(10.0411 0.087022 0)
(10.0357 0.0919995 0)
(9.98613 0.047581 0)
(9.92836 0.0884319 0)
(9.91466 0.114969 0)
(9.90324 0.0912116 0)
(9.88681 0.0515048 0)
(9.87179 0.0293317 0)
(9.87041 0.0305202 0)
(9.88637 0.0426607 0)
(9.91427 0.0514582 0)
(9.94772 0.0510906 0)
(9.97872 0.0440968 0)
(10.0018 0.0373255 0)
(10.0132 0.0363038 0)
(10.0137 0.0443642 0)
(10.0076 0.0609096 0)
(9.99582 0.0828946 0)
(9.98555 0.107061 0)
(9.9408 0.12544 0)
(9.92633 0.0411766 0)
(9.8649 -0.0333657 0)
(9.87254 -0.0682629 0)
(9.95759 -0.0801338 0)
(10.0442 -0.0502724 0)
(10.0767 0.001927 0)
(10.0611 0.0357848 0)
(10.031 0.0372459 0)
(10.0121 0.0237919 0)
(10.0101 0.0216381 0)
(10.0147 0.0436946 0)
(10.0115 0.0845049 0)
(9.9922 0.128929 0)
(9.95874 0.158964 0)
(9.92089 0.168299 0)
(9.88754 0.154403 0)
(9.86674 0.125882 0)
(10.0759 0.0409229 0)
(9.99177 0.156516 0)
(9.96933 0.135131 0)
(9.94264 0.0441731 0)
(9.89047 -0.0342255 0)
(9.85201 -0.0481002 0)
(9.84024 -0.00838489 0)
(9.85356 0.0345121 0)
(9.876 0.0465348 0)
(9.8897 0.0309238 0)
(9.89074 0.0118166 0)
(9.88872 0.0100452 0)
(9.89296 0.0311363 0)
(9.90864 0.0665914 0)
(9.93381 0.101929 0)
(9.96254 0.125861 0)
(9.98856 0.135186 0)
(10.0022 0.130874 0)
(9.76175 -0.179213 0)
(9.81796 -0.0162173 0)
(9.87587 0.0389644 0)
(9.92871 0.00301236 0)
(9.93293 -0.0101512 0)
(9.91889 0.00767539 0)
(9.91342 0.0297839 0)
(9.92137 0.0397688 0)
(9.93485 0.0398216 0)
(9.94208 0.0420089 0)
(9.93733 0.0526444 0)
(9.92522 0.0680892 0)
(9.91479 0.0806339 0)
(9.91256 0.0871196 0)
(9.91987 0.0899471 0)
(9.93272 0.0934533 0)
(9.94622 0.102736 0)
(9.95286 0.118676 0)
(9.98705 0.0126287 0)
(10.0004 -0.000448529 0)
(10.0409 0.0154743 0)
(10.0791 0.0227348 0)
(10.0539 0.0144776 0)
(9.99465 -0.00940296 0)
(9.96337 -0.0338176 0)
(9.9657 -0.041592 0)
(9.97765 -0.027568 0)
(9.98595 -0.00035382 0)
(9.98989 0.025812 0)
(9.99169 0.04143 0)
(9.99305 0.045289 0)
(9.9947 0.0425711 0)
(9.99929 0.0419463 0)
(10.0068 0.0494455 0)
(10.0177 0.0687277 0)
(10.0282 0.0988917 0)
(10.1249 0.154165 0)
(10.0927 -0.0479404 0)
(9.98826 -0.0692799 0)
(9.96423 -0.00830968 0)
(9.99007 0.0516411 0)
(10.0177 0.0825471 0)
(10.0238 0.0741476 0)
(10.0132 0.0423501 0)
(9.99586 0.0164564 0)
(9.97866 0.013522 0)
(9.9676 0.0300582 0)
(9.96525 0.0512896 0)
(9.96905 0.0649614 0)
(9.9733 0.0661435 0)
(9.97643 0.0599367 0)
(9.98106 0.0562085 0)
(9.9903 0.0623453 0)
(10.0082 0.0869259 0)
(10.007 -0.0345826 0)
(9.95201 0.0374079 0)
(9.97637 0.0197849 0)
(9.97579 0.013059 0)
(9.98947 0.0166904 0)
(10.0113 0.0108163 0)
(10.0176 0.000605887 0)
(9.99954 0.00165385 0)
(9.95724 0.0174966 0)
(9.90339 0.0384433 0)
(9.86171 0.054036 0)
(9.84976 0.0598436 0)
(9.86774 0.0572623 0)
(9.9036 0.0489076 0)
(9.94182 0.0352587 0)
(9.97302 0.0202928 0)
(9.99263 0.00545904 0)
(10.0013 0.000328376 0)
(9.96863 0.0151404 0)
(10.0495 0.0679758 0)
(10.0022 0.0460457 0)
(9.97571 0.00707589 0)
(9.98856 -0.00956525 0)
(10.0206 0.00645562 0)
(10.046 0.0579817 0)
(10.0571 0.120626 0)
(10.0571 0.157004 0)
(10.0555 0.146728 0)
(10.0645 0.0963125 0)
(10.0919 0.0297034 0)
(10.1363 -0.0270191 0)
(10.1895 -0.055466 0)
(10.2412 -0.050236 0)
(10.2807 -0.0184356 0)
(10.3036 0.0288229 0)
(10.3039 0.075077 0)
(9.96638 0.0219317 0)
(9.83173 -0.0249517 0)
(9.85149 -0.032248 0)
(9.88592 -0.0116606 0)
(9.89091 0.00441236 0)
(9.87124 -0.00367127 0)
(9.85287 -0.0113111 0)
(9.85769 0.00135789 0)
(9.88443 0.0231413 0)
(9.91704 0.0317881 0)
(9.94212 0.0154969 0)
(9.95736 -0.0219795 0)
(9.96812 -0.0657519 0)
(9.9816 -0.0991946 0)
(10.0052 -0.10956 0)
(10.042 -0.0936604 0)
(10.0908 -0.0549232 0)
(10.1478 -0.00172601 0)
(9.80307 -0.0118532 0)
(9.92822 0.0244948 0)
(9.9697 0.0375041 0)
(9.9713 0.00387117 0)
(9.95917 -0.0176653 0)
(9.95561 -0.00603298 0)
(9.95939 0.0308675 0)
(9.97074 0.0704635 0)
(9.99545 0.0907008 0)
(10.0322 0.081721 0)
(10.0705 0.0472166 0)
(10.0989 -0.000962562 0)
(10.1096 -0.0481474 0)
(10.1016 -0.0830303 0)
(10.077 -0.0997716 0)
(10.0442 -0.0973956 0)
(10.01 -0.0792915 0)
(9.98444 -0.0468323 0)
(9.90955 -0.0994325 0)
(9.97831 -0.112473 0)
(10.0416 -0.0436677 0)
(10.0824 0.0185137 0)
(10.0812 0.0410715 0)
(10.0752 0.0313191 0)
(10.0935 0.0123216 0)
(10.1277 -7.53077e-05 0)
(10.1524 -0.00685563 0)
(10.1516 -0.0179234 0)
(10.1284 -0.039122 0)
(10.0981 -0.0667135 0)
(10.0759 -0.0906379 0)
(10.069 -0.100044 0)
(10.0752 -0.0896276 0)
(10.0877 -0.062018 0)
(10.1009 -0.0238709 0)
(10.1105 0.0161204 0)
(9.73241 -0.159172 0)
(9.63982 -0.110239 0)
(9.66571 -0.0604366 0)
(9.78348 -0.0259205 0)
(9.88975 -0.0207792 0)
(9.94753 -0.0347074 0)
(9.98292 -0.0343083 0)
(10.0336 -0.0034596 0)
(10.1051 0.0431541 0)
(10.1738 0.0774031 0)
(10.2121 0.0798838 0)
(10.208 0.0497681 0)
(10.1691 0.00132228 0)
(10.1148 -0.0455878 0)
(10.0655 -0.0752935 0)
(10.035 -0.0821807 0)
(10.0273 -0.0683791 0)
(10.0419 -0.0415602 0)
(10.0924 -0.130759 0)
(10.0572 -0.148097 0)
(10.0094 -0.116423 0)
(10.0583 -0.0745532 0)
(10.0991 -0.0222227 0)
(10.0657 0.00153869 0)
(10.0023 -0.0133009 0)
(9.97273 -0.0422958 0)
(9.99827 -0.0589296 0)
(10.0609 -0.0559338 0)
(10.1267 -0.0426968 0)
(10.1669 -0.0323654 0)
(10.1711 -0.0322261 0)
(10.1455 -0.0412115 0)
(10.1065 -0.0522768 0)
(10.0717 -0.0579705 0)
(10.0517 -0.0547278 0)
(10.054 -0.0413255 0)
(9.91355 -0.0992393 0)
(9.83736 -0.073332 0)
(9.78648 -0.102008 0)
(9.77226 -0.0963204 0)
(9.80834 -0.0598612 0)
(9.88969 -0.0336441 0)
(9.98163 -0.0308113 0)
(10.0482 -0.0378954 0)
(10.0827 -0.0380867 0)
(10.1008 -0.0267537 0)
(10.1173 -0.0103883 0)
(10.1341 0.00133729 0)
(10.1463 0.00261149 0)
(10.1476 -0.00633628 0)
(10.1365 -0.0208079 0)
(10.1182 -0.0345305 0)
(10.1005 -0.0441421 0)
(10.094 -0.0471559 0)
(10.0066 -0.034143 0)
(10.0962 -0.0504561 0)
(10.1202 -0.0508167 0)
(10.0506 -0.036127 0)
(9.99769 -0.0153053 0)
(9.98741 -0.018929 0)
(9.98147 -0.0439085 0)
(9.95989 -0.0653278 0)
(9.94066 -0.0673931 0)
(9.94803 -0.0527857 0)
(9.98634 -0.032851 0)
(10.0405 -0.0173472 0)
(10.0883 -0.010287 0)
(10.1146 -0.0117042 0)
(10.1151 -0.0196693 0)
(10.099 -0.0309957 0)
(10.0769 -0.0440025 0)
(10.061 -0.0550881 0)
(9.83394 0.0166176 0)
(9.71205 -0.10763 0)
(9.37797 -0.115809 0)
(9.12142 -0.0895688 0)
(8.97095 -0.0738411 0)
(8.86275 -0.0582099 0)
(8.75123 -0.0402944 0)
(8.62032 -0.0333417 0)
(8.47536 -0.0432078 0)
(8.32975 -0.0606815 0)
(8.19618 -0.0717027 0)
(8.08509 -0.0685871 0)
(8.00216 -0.0529974 0)
(7.94639 -0.0332822 0)
(7.90429 -0.0184864 0)
(7.86328 -0.0128859 0)
(7.80864 -0.016725 0)
(7.73875 -0.0234787 0)
(-0.112048 0.0271755 1.17186e-19)
(-0.234868 -0.0165234 -1.16246e-19)
(-0.37915 -0.0760828 0)
(-0.502378 -0.137622 0)
(-0.413897 -0.189136 0)
(-0.112019 -0.314297 1.12952e-19)
(0.328986 -0.444667 0)
(0.85905 -0.528907 0)
(1.44488 -0.562367 0)
(2.05291 -0.55211 0)
(2.65137 -0.508374 -1.07697e-19)
(3.20954 -0.442347 0)
(3.70689 -0.365152 0)
(4.13257 -0.284036 0)
(4.4813 -0.203203 0)
(4.75136 -0.125349 -1.02134e-19)
(4.94418 -0.0518302 0)
(5.05943 0.0166161 0)
(5.10315 0.0801153 0)
(5.06747 0.13951 0)
(4.95645 0.19595 0)
(4.77335 0.249914 0)
(4.52133 0.300803 0)
(4.2036 0.347979 -9.56062e-20)
(3.82474 0.389237 9.49696e-20)
(3.39115 0.420113 -9.4351e-20)
(2.91371 0.432719 -9.37398e-20)
(2.41044 0.415426 0)
(1.91081 0.360661 0)
(1.44419 0.284485 9.18698e-20)
(1.0333 0.224942 9.12164e-20)
(0.675299 0.203486 0)
(0.367081 0.203595 0)
(0.0860257 0.203193 8.90967e-20)
(-0.168497 0.193367 0)
(-0.4316 0.120453 0)
(-0.620593 -0.0782656 -8.64843e-20)
(-0.700213 -0.21708 0)
(-0.707165 -0.133552 -8.49687e-20)
(-0.692343 0.0739273 -1.68479e-19)
(-0.669441 0.179134 0)
(-0.760918 0.135004 0)
(-1.04962 0.0206363 0)
(-1.32327 -0.0875432 0)
(-1.43631 -0.214771 0)
(-1.40443 -0.325957 -1.59318e-19)
(-1.21929 -0.367836 -1.57899e-19)
(-0.95793 -0.40991 -1.56534e-19)
(-0.641853 -0.438494 0)
(-0.265033 -0.456961 1.53857e-19)
(0.129843 -0.464272 0)
(0.552361 -0.458731 -1.50803e-19)
(0.981857 -0.444833 -1.49128e-19)
(1.41069 -0.420828 0)
(1.8353 -0.395164 0)
(2.25159 -0.369649 0)
(2.66208 -0.33534 -1.42282e-19)
(3.05869 -0.283241 0)
(3.41556 -0.224803 0)
(3.71393 -0.170345 0)
(3.95585 -0.105961 0)
(4.12593 -0.0371598 0)
(4.19725 0.0111717 0)
(4.15479 0.0579488 0)
(4.02437 0.108008 0)
(3.81849 0.118484 1.28407e-19)
(3.54527 0.0510416 0)
(3.25996 -0.12388 0)
(3.06205 -0.30051 -1.24857e-19)
(2.98149 -0.257208 -1.2369e-19)
(2.94692 -0.013521 0)
(2.92265 0.164024 1.21262e-19)
(2.8698 0.199342 -1.19984e-19)
(2.69978 0.183869 0)
(2.53709 0.0781245 1.17248e-19)
(2.56998 -0.140556 0)
(2.83311 -0.344217 0)
(3.26137 -0.41663 -1.12757e-19)
(3.71676 -0.372949 0)
(4.04199 -0.253427 1.09948e-19)
(4.18946 -0.0673281 0)
(4.12409 0.0538216 -1.07924e-19)
(3.7669 0.0246001 -1.07243e-19)
(3.09016 0.0703524 -1.06756e-19)
(2.11254 0.334627 -2.12779e-19)
(1.00303 0.505055 2.12027e-19)
(0.0522893 0.438433 0)
(-0.537188 0.315976 0)
(-0.899194 0.12516 0)
(-1.59692 0.0529117 2.03885e-19)
(-2.51216 0.840034 2.01266e-19)
(-5.79472 2.02996 -1.97317e-19)
(-9.64202 1.11133 0)
(-10.8194 0.455447 1.85833e-19)
(-12.1056 0.566734 1.80844e-19)
(-12.942 0.178769 1.76313e-19)
(-13.3439 0.221229 0)
(-13.8552 0.152629 0)
(-14.0708 0.0941057 0)
(-14.3512 0.123552 1.62617e-19)
(-14.5393 0.0541199 0)
(-14.6748 0.0555621 0)
(-14.7736 0.0147112 -1.55055e-19)
(-14.761 -0.0264562 0)
(-14.6991 -0.0513498 0)
(-14.5468 -0.0941063 -1.5024e-19)
(-14.316 -0.120859 0)
(-14.0165 -0.149256 0)
(-13.6435 -0.174121 1.48123e-19)
(-13.2241 -0.189352 1.47808e-19)
(-12.7611 -0.205742 0)
(-12.2605 -0.216301 -1.47416e-19)
(-11.7381 -0.219822 0)
(-11.2008 -0.222133 1.47014e-19)
(-10.6524 -0.223368 0)
(-10.098 -0.222521 1.46341e-19)
(-9.54248 -0.219874 1.45855e-19)
(-8.99047 -0.215788 0)
(-8.446 -0.210434 0)
(-7.91288 -0.203914 0)
(-7.39413 -0.196531 0)
(-6.89176 -0.188669 0)
(-6.40681 -0.180697 0)
(-5.93942 -0.172971 0)
(-5.48898 -0.165778 1.37898e-19)
(-5.05436 -0.159292 -1.36501e-19)
(-4.63408 -0.153601 0)
(-4.22653 -0.148719 0)
(-3.83022 -0.144601 0)
(-3.44389 -0.141206 0)
(-3.06658 -0.138541 -2.57974e-19)
(-2.69771 -0.136701 0)
(-2.33725 -0.135864 2.51746e-19)
(-1.98614 -0.13626 -2.48612e-19)
(-1.64616 -0.138033 0)
(-1.3196 -0.140704 0)
(-1.00787 -0.142674 0)
(-0.708443 -0.141395 2.35943e-19)
(-0.412898 -0.1352 2.32749e-19)
(-0.116976 -0.123265 0)
(0.187551 -0.112509 2.26262e-19)
(0.493097 -0.105726 2.22938e-19)
(0.801597 -0.104701 -2.19634e-19)
(1.11763 -0.105989 0)
(1.44642 -0.10754 0)
(1.79102 -0.108414 -2.09865e-19)
(2.15035 -0.107836 0)
(2.51945 -0.105282 0)
(2.89188 -0.10079 0)
(3.26278 -0.0949055 0)
(3.62962 -0.0878215 1.93594e-19)
(3.98761 -0.0769551 1.90332e-19)
(4.3181 -0.0560054 0)
(4.58208 -0.0232152 1.83852e-19)
(4.74405 0.00409766 0)
(4.82484 -0.00554972 0)
(4.92048 -0.0581617 1.74348e-19)
(5.13345 -0.0963821 0)
(5.42478 -0.0360701 1.68189e-19)
(5.54085 0.110425 0)
(5.30931 0.216742 0)
(4.85339 0.184764 1.59171e-19)
(4.44823 0.0135073 0)
(4.32063 -0.200746 1.53338e-19)
(4.57093 -0.242964 0)
(4.86934 0.0239148 0)
(4.5609 0.302307 0)
(3.74535 0.258187 -1.42203e-19)
(3.02561 0.0471638 0)
(2.6115 -0.0767404 1.36171e-19)
(2.45258 -0.0876896 0)
(2.45545 -0.056235 0)
(2.50269 -0.0263869 0)
(2.50504 -0.0108418 0)
(2.45071 0.000100331 0)
(2.34878 0.00369298 0)
(2.25845 0.0100506 0)
(2.15619 0.00658655 -2.28854e-19)
(2.1379 0.0178503 0)
(1.98175 0.034697 0)
(-0.0354005 0.385816 -3.51619e-19)
(-0.0863735 0.380273 3.49049e-19)
(-0.13492 0.360472 0)
(0.0304383 0.122708 -2.29224e-19)
(0.521946 -0.46681 0)
(1.12806 -1.05828 -1.12463e-19)
(1.76753 -1.5045 2.22458e-19)
(2.39963 -1.76843 2.20172e-19)
(3.00319 -1.86774 0)
(3.56485 -1.8399 2.15687e-19)
(4.07548 -1.724 1.07069e-19)
(4.52889 -1.55195 0)
(4.92236 -1.34701 0)
(5.25479 -1.12558 0)
(5.52599 -0.898301 0)
(5.73774 -0.671564 1.01802e-19)
(5.89085 -0.448816 0)
(5.989 -0.232568 -1.99425e-19)
(6.03001 -0.023384 0)
(6.02455 0.177091 0)
(5.97427 0.367466 1.94423e-19)
(5.8796 0.546748 0)
(5.74086 0.714242 -1.91413e-19)
(5.55791 0.869203 9.51994e-20)
(5.33088 1.00993 -9.45194e-20)
(5.05893 1.13274 9.38569e-20)
(4.74115 1.23047 9.32062e-20)
(4.37362 1.29223 0)
(3.95461 1.30436 0)
(3.48107 1.25609 -9.13031e-20)
(2.96617 1.14303 9.05492e-20)
(2.44019 0.982342 0)
(1.9586 0.818081 0)
(1.54254 0.694244 -8.87439e-20)
(1.20135 0.613419 0)
(0.896483 0.550447 0)
(0.608444 0.472115 8.66369e-20)
(0.309266 0.38289 0)
(-0.0545581 0.263637 -8.52376e-20)
(-0.442561 0.0606883 1.68778e-19)
(-0.754779 -0.0338398 0)
(-0.857094 0.198945 0)
(-0.841549 0.396504 3.27816e-19)
(-0.766153 0.20122 3.25012e-19)
(-0.561135 -0.0993379 3.22174e-19)
(-0.387665 -0.303533 -1.59656e-19)
(-0.121967 -0.582372 1.58205e-19)
(0.174484 -0.76415 4.70167e-19)
(0.493381 -0.864625 -3.10277e-19)
(0.869325 -0.938776 -1.53572e-19)
(1.24131 -0.985152 0)
(1.61681 -1.00563 1.50341e-19)
(1.9834 -1.01024 -1.48523e-19)
(2.35882 -0.992111 0)
(2.73409 -0.960281 0)
(3.10334 -0.925292 0)
(3.45812 -0.887955 1.41949e-19)
(3.80516 -0.815892 0)
(4.13773 -0.698861 -2.76803e-19)
(4.43491 -0.569201 0)
(4.69128 -0.429395 -2.7015e-19)
(4.90245 -0.241838 0)
(5.02832 -0.0268757 2.6405e-19)
(5.0847 0.157538 0)
(5.10971 0.325749 -2.58451e-19)
(5.04242 0.477098 1.27788e-19)
(4.83531 0.568743 0)
(4.59677 0.635872 2.51217e-19)
(4.3809 0.608491 1.24523e-19)
(4.14128 0.334015 1.23402e-19)
(3.91625 -0.00423658 0)
(3.77539 -0.125872 1.21266e-19)
(3.62688 0.0150212 1.19799e-19)
(3.3962 0.305533 0)
(3.40368 0.321883 -1.17061e-19)
(3.75985 -0.126084 2.31166e-19)
(4.1516 -0.633275 0)
(4.39525 -0.80368 1.12476e-19)
(4.53704 -0.642778 0)
(4.52796 -0.376903 -3.28965e-19)
(4.20992 0.000730079 0)
(3.64651 0.554988 3.22996e-19)
(2.94766 1.12768 1.07267e-19)
(2.15039 1.54339 -1.06167e-19)
(1.25599 1.7457 -2.11774e-19)
(0.309474 1.6839 2.11229e-19)
(-0.519188 1.32451 0)
(-1.252 0.870534 0)
(-2.64423 1.15274 0)
(-5.7834 2.99658 -6.03726e-19)
(-8.64864 4.25413 -1.98948e-19)
(-10.2625 3.4467 1.95509e-19)
(-11.5289 2.14485 0)
(-11.7963 1.51127 1.81245e-19)
(-12.2768 1.05067 -1.80581e-19)
(-12.5229 0.627073 -1.76278e-19)
(-12.7608 0.500968 0)
(-12.9816 0.349127 0)
(-13.1281 0.278474 0)
(-13.3243 0.238346 -1.62826e-19)
(-13.4255 0.159258 0)
(-13.5525 0.104637 3.14523e-19)
(-13.5972 0.0172049 4.6532e-19)
(-13.5784 -0.0818115 -3.0612e-19)
(-13.5071 -0.175088 0)
(-13.3399 -0.276525 -1.49855e-19)
(-13.1044 -0.371452 0)
(-12.7884 -0.457172 -2.97046e-19)
(-12.4046 -0.52779 1.4786e-19)
(-11.9736 -0.579991 1.47603e-19)
(-11.5027 -0.620938 0)
(-11.001 -0.650883 4.42446e-19)
(-10.4772 -0.668702 -2.94564e-19)
(-9.93992 -0.677393 -1.47155e-19)
(-9.39481 -0.679868 0)
(-8.84534 -0.677119 -1.46476e-19)
(-8.29637 -0.668931 -4.37882e-19)
(-7.75296 -0.655679 0)
(-7.21935 -0.638231 -2.89272e-19)
(-6.69965 -0.617186 -2.87593e-19)
(-6.19703 -0.593693 -2.85673e-19)
(-5.71327 -0.569096 0)
(-5.2491 -0.544483 0)
(-4.80422 -0.520759 0)
(-4.37759 -0.498576 1.37952e-19)
(-3.96783 -0.478279 1.36616e-19)
(-3.57326 -0.460037 0)
(-3.19207 -0.443882 2.67281e-19)
(-2.8226 -0.429641 2.64248e-19)
(-2.46338 -0.417016 0)
(-2.11326 -0.405658 2.58162e-19)
(-1.77136 -0.395354 5.09935e-19)
(-1.43707 -0.386173 -2.51917e-19)
(-1.11077 -0.378494 -2.48638e-19)
(-0.79321 -0.372969 0)
(-0.485728 -0.369692 0)
(-0.190471 -0.367209 0)
(0.0915851 -0.362204 -2.36023e-19)
(0.368983 -0.353128 2.32606e-19)
(0.640505 -0.339626 4.58634e-19)
(0.911171 -0.328188 -2.26038e-19)
(1.18491 -0.323165 2.22634e-19)
(1.46477 -0.326008 2.19434e-19)
(1.75238 -0.334702 0)
(2.05063 -0.345563 0)
(2.36166 -0.35536 -2.09591e-19)
(2.68425 -0.361208 0)
(3.0136 -0.36154 0)
(3.34243 -0.357177 3.99872e-19)
(3.6648 -0.350475 0)
(3.9813 -0.341586 1.93387e-19)
(4.2977 -0.32384 -1.90225e-19)
(4.61293 -0.284666 0)
(4.90633 -0.217837 1.83711e-19)
(5.139 -0.140243 0)
(5.2682 -0.0943042 0)
(5.2801 -0.119281 -1.74297e-19)
(5.2525 -0.194917 3.42395e-19)
(5.36548 -0.217537 -1.6816e-19)
(5.72809 -0.0979762 0)
(6.15283 0.112154 0)
(6.39237 0.272844 1.58874e-19)
(6.37272 0.284123 0)
(6.0141 0.124082 1.53162e-19)
(5.4215 -0.0880675 0)
(5.15165 -0.105667 0)
(5.39605 0.133708 0)
(5.84602 0.406804 1.41933e-19)
(6.14518 0.508565 0)
(5.9388 0.392183 -1.35769e-19)
(5.34807 0.184485 0)
(4.804 0.0434465 0)
(4.46092 0.0136676 2.5583e-19)
(4.21019 0.0455165 -2.50503e-19)
(3.95124 0.0840874 0)
(3.66559 0.0924174 0)
(3.43654 0.0792225 0)
(3.25985 0.0508165 6.85874e-19)
(3.20775 0.0546755 0)
(3.07007 0.069376 -4.36419e-19)
(0.00351304 0.429843 -7.84173e-23)
(0.0217322 0.540021 -4.65408e-19)
(0.271164 0.12377 0)
(0.989 -0.970677 4.56491e-19)
(1.79288 -2.01014 0)
(2.53672 -2.74828 0)
(3.17046 -3.15558 -4.84577e-22)
(3.68885 -3.28425 -2.18952e-19)
(4.10847 -3.21098 -2.16127e-19)
(4.45223 -3.00851 -2.14852e-19)
(4.74038 -2.7327 0)
(4.98736 -2.4208 0)
(5.20241 -2.09548 2.08026e-19)
(5.38938 -1.76919 4.1217e-19)
(5.55025 -1.4493 -4.08371e-19)
(5.68579 -1.13871 0)
(5.79667 -0.838617 -4.01119e-19)
(5.88105 -0.547792 1.99442e-19)
(5.9391 -0.267188 0)
(5.96677 0.00512329 -3.90985e-19)
(5.96245 0.269024 -1.94392e-19)
(5.92692 0.52303 3.84485e-19)
(5.86138 0.765498 1.91263e-19)
(5.76595 0.995068 0)
(5.63977 1.21056 -3.75698e-19)
(5.48067 1.40955 -3.72974e-19)
(5.28617 1.58691 0)
(5.05075 1.73437 -3.67786e-19)
(4.76859 1.84057 0)
(4.43271 1.89294 -3.629e-19)
(4.04399 1.87776 -1.80533e-19)
(3.60778 1.78445 0)
(3.14584 1.61669 0)
(2.68933 1.40687 0)
(2.28216 1.1987 0)
(1.94328 1.02093 0)
(1.65922 0.887302 0)
(1.40571 0.802695 -3.42912e-19)
(1.1602 0.75536 5.10083e-19)
(0.90563 0.685027 0)
(0.675055 0.557689 0)
(0.4838 0.392661 0)
(0.412539 0.202308 1.80599e-22)
(0.425681 -0.0333638 -3.25313e-19)
(0.536072 -0.313851 -6.44505e-19)
(0.650399 -0.659367 6.38126e-19)
(0.832419 -0.958721 3.1598e-19)
(1.0417 -1.17041 -3.12672e-19)
(1.26987 -1.29236 -6.81556e-23)
(1.48836 -1.361 -3.06454e-19)
(1.69845 -1.39745 0)
(1.90292 -1.41245 -3.00069e-19)
(2.08316 -1.41885 1.25454e-22)
(2.28316 -1.41379 0)
(2.46141 -1.41065 0)
(2.68301 -1.39257 2.86975e-19)
(2.90193 -1.36465 0)
(3.14639 -1.30067 0)
(3.40471 -1.20098 -2.76515e-19)
(3.66704 -1.08222 -5.46774e-19)
(3.94089 -0.930036 2.70413e-19)
(4.21249 -0.698469 0)
(4.42296 -0.41008 -2.64304e-19)
(4.53579 -0.161915 0)
(4.62615 0.0649015 -2.57796e-19)
(4.74348 0.36593 -2.55969e-19)
(4.77704 0.631783 5.06219e-19)
(4.65833 0.635315 2.50804e-19)
(4.47027 0.43873 0)
(4.18815 0.388747 -4.93775e-19)
(3.73979 0.539917 0)
(3.32685 0.601028 -7.27776e-19)
(3.12993 0.569875 -4.80626e-19)
(3.26887 0.40912 -4.75311e-19)
(3.71769 -0.173027 4.69308e-19)
(3.98804 -0.795839 -6.93697e-19)
(3.84637 -0.989463 0)
(3.42754 -0.714194 0)
(2.92086 -0.0698562 4.43711e-19)
(2.5997 0.548671 6.57568e-19)
(2.44983 0.991373 0)
(2.20097 1.40714 -2.15384e-19)
(1.73339 1.84017 0)
(1.08516 2.26969 6.37599e-19)
(0.363299 2.52394 1.68895e-21)
(-0.412911 2.40424 -1.48769e-21)
(-1.4453 2.17211 -4.1793e-19)
(-2.9067 2.39488 0)
(-5.53796 3.91139 4.04678e-19)
(-8.6829 5.70056 3.95608e-21)
(-10.1292 5.65281 0)
(-10.0505 4.03168 0)
(-10.2669 2.85087 0)
(-10.3794 2.14124 -3.67019e-19)
(-10.4309 1.39563 0)
(-10.6524 0.976471 0)
(-10.8229 0.751425 0)
(-11.0004 0.531144 0)
(-11.2368 0.462746 0)
(-11.4553 0.385701 -3.25198e-19)
(-11.6793 0.302122 0)
(-11.897 0.223404 -3.15203e-19)
(-12.0364 0.0784124 -3.10664e-19)
(-12.0992 -0.0684842 3.06745e-19)
(-12.0715 -0.227566 0)
(-11.9523 -0.400972 3.00801e-19)
(-11.7426 -0.563062 0)
(-11.4355 -0.717857 2.97444e-19)
(-11.053 -0.846358 -2.9652e-19)
(-10.6173 -0.942876 -8.86548e-19)
(-10.1369 -1.01895 0)
(-9.62069 -1.07347 -8.84796e-19)
(-9.08182 -1.10476 -2.94226e-19)
(-8.53142 -1.11854 0)
(-7.97422 -1.12097 -5.87401e-19)
(-7.41247 -1.11476 -5.85993e-19)
(-6.85118 -1.0995 8.76363e-19)
(-6.29657 -1.07547 0)
(-5.75365 -1.04441 2.89603e-19)
(-5.22775 -1.00704 2.87928e-19)
(-4.72341 -0.965098 8.57855e-19)
(-4.24334 -0.921103 0)
(-3.7888 -0.877208 0)
(-3.35963 -0.835294 0)
(-2.9544 -0.796738 2.76086e-19)
(-2.57107 -0.762217 0)
(-2.20736 -0.731864 0)
(-1.86067 -0.705512 -2.67583e-19)
(-1.52863 -0.682647 -2.64536e-19)
(-1.20909 -0.662523 0)
(-0.90012 -0.644085 0)
(-0.600268 -0.626036 -5.10424e-19)
(-0.308246 -0.607521 0)
(-0.0241004 -0.588061 4.97792e-19)
(0.25152 -0.567562 4.91082e-19)
(0.517357 -0.546334 0)
(0.771094 -0.524359 0)
(1.0127 -0.501708 -4.71236e-19)
(1.24494 -0.479066 -1.32001e-22)
(1.47222 -0.459332 -1.31764e-22)
(1.69965 -0.446451 0)
(1.93235 -0.443768 -8.89652e-19)
(2.17346 -0.451492 0)
(2.42588 -0.466976 0)
(2.69119 -0.485829 0)
(2.968 -0.503177 4.18889e-19)
(3.25136 -0.513975 0)
(3.53414 -0.513907 -8.11793e-19)
(3.80789 -0.502798 -3.99569e-19)
(4.06273 -0.487305 0)
(4.29334 -0.475491 -3.86645e-19)
(4.51038 -0.462573 0)
(4.73606 -0.424596 0)
(4.97278 -0.337933 -1.10193e-18)
(5.17936 -0.211387 7.21931e-19)
(5.29684 -0.0963978 0)
(5.29933 -0.06343 6.97047e-19)
(5.22287 -0.144037 -3.42418e-19)
(5.17987 -0.261747 0)
(5.32432 -0.262316 0)
(5.69814 -0.0907359 0)
(6.14112 0.128485 -9.5369e-19)
(6.39953 0.270823 0)
(6.22555 0.317461 -3.06109e-19)
(5.62445 0.249951 0)
(5.06902 0.108197 0)
(5.07946 0.0384873 0)
(5.6943 0.097381 0)
(6.49654 0.24317 0)
(6.92281 0.393862 0)
(6.72921 0.431141 -5.31521e-19)
(6.146 0.338699 0)
(5.52632 0.242054 -2.55514e-19)
(5.01289 0.225398 7.50735e-19)
(4.57286 0.250054 0)
(4.18563 0.242085 0)
(3.89925 0.189418 -4.67581e-19)
(3.71453 0.115368 -4.5701e-19)
(3.64767 0.0920884 4.46406e-19)
(3.55695 0.112394 4.36229e-19)
(-0.022124 0.180159 7.03528e-19)
(0.239422 0.013313 6.97532e-19)
(1.14728 -1.63566 4.59516e-19)
(2.05316 -3.04122 2.26702e-19)
(2.78745 -3.87599 0)
(3.29914 -4.19585 -4.43375e-19)
(3.6101 -4.15176 2.18922e-19)
(3.78131 -3.89275 0)
(3.87734 -3.53204 2.16215e-19)
(3.94574 -3.13985 0)
(4.01427 -2.7509 -4.2346e-19)
(4.09424 -2.37626 0)
(4.18565 -2.01681 -2.08551e-19)
(4.28426 -1.67178 -4.13303e-19)
(4.38567 -1.34069 4.09567e-19)
(4.48715 -1.02274 0)
(4.58571 -0.715906 4.02358e-19)
(4.67898 -0.418986 0)
(4.76258 -0.130334 0)
(4.83595 0.149149 3.92214e-19)
(4.89547 0.419803 0)
(4.93918 0.681986 -8.7554e-22)
(4.96769 0.935709 0)
(4.98165 1.18037 0)
(4.97946 1.41557 9.55175e-22)
(4.95586 1.64146 3.73171e-19)
(4.90416 1.85593 3.69347e-19)
(4.81713 2.05353 3.67607e-19)
(4.68661 2.22434 0)
(4.50272 2.35406 7.24167e-19)
(4.25978 2.42412 0)
(3.9557 2.41413 3.57028e-19)
(3.59774 2.30886 0)
(3.20626 2.11034 0)
(2.8188 1.84705 -3.50163e-19)
(2.4636 1.57699 0)
(2.15719 1.36198 3.45137e-19)
(1.89592 1.21912 -1.13338e-22)
(1.68913 1.1258 -6.79105e-19)
(1.5115 1.0379 6.73571e-19)
(1.36957 0.911797 0)
(1.24763 0.730706 0)
(1.17604 0.476726 3.28457e-19)
(1.15309 0.168933 0)
(1.16576 -0.166497 3.21864e-19)
(1.18476 -0.504259 -3.18729e-19)
(1.25273 -0.769296 -3.15632e-19)
(1.26085 -1.00143 0)
(1.27823 -1.16892 3.0956e-19)
(1.22114 -1.27846 3.06564e-19)
(1.16616 -1.32989 -6.0716e-19)
(1.08435 -1.35072 3.00535e-19)
(1.04875 -1.35273 2.97454e-19)
(1.02253 -1.36994 0)
(0.991964 -1.40335 0)
(1.10511 -1.40197 -2.87833e-19)
(1.16896 -1.42299 0)
(1.33997 -1.39408 0)
(1.52619 -1.34407 5.5538e-19)
(1.74971 -1.24898 5.48582e-19)
(2.01541 -1.07416 0)
(2.27796 -0.834142 0)
(2.52423 -0.564955 0)
(2.76388 -0.327351 0)
(2.98153 -0.101382 5.1823e-19)
(3.13454 0.210071 -5.12235e-19)
(3.2012 0.562454 -5.0776e-19)
(3.19401 0.798186 -1.00619e-18)
(3.11991 0.907417 0)
(2.96872 0.964317 -1.93771e-22)
(2.83317 0.888518 0)
(2.81225 0.608982 4.85789e-19)
(2.8698 0.21813 -9.73897e-22)
(2.87721 -0.227274 4.75879e-19)
(2.62407 -0.529677 -4.70265e-19)
(2.0943 -0.473979 -6.71558e-22)
(1.55952 -0.152195 0)
(1.51779 0.0137577 -4.50551e-19)
(1.88347 0.0357126 -4.44574e-19)
(2.2514 0.201312 -8.73968e-19)
(2.36066 0.657941 0)
(2.13036 1.37273 4.25428e-19)
(1.60092 2.12283 0)
(0.823319 2.73626 -8.45509e-19)
(-0.126231 3.20361 4.22405e-19)
(-1.30723 3.4621 -4.19765e-19)
(-2.76602 3.69204 4.16037e-19)
(-4.79032 4.67738 8.13526e-19)
(-7.58781 6.48848 -4.02073e-19)
(-9.51709 7.16415 3.93188e-19)
(-9.41458 5.76981 0)
(-8.88269 4.04741 -7.47666e-19)
(-9.1151 3.13803 0)
(-9.08176 2.30922 -7.2118e-19)
(-9.04505 1.60126 7.08971e-19)
(-9.27277 1.22376 6.96776e-19)
(-9.4039 0.952035 -6.84858e-19)
(-9.64978 0.777084 -6.73047e-19)
(-9.97739 0.711488 0)