/*--------------------------------*- C++ -*----------------------------------*\
  =========                 |
  \\      /  F ield         | OpenFOAM: The Open Source CFD Toolbox
   \\    /   O peration     | Website:  https://openfoam.org
    \\  /    A nd           | Version:  6
     \\/     M anipulation  |
\*---------------------------------------------------------------------------*/
FoamFile
{
    version     2.0;
    format      ascii;
    class       volSymmTensorField;
    location    "0.4";
    object      UPrime2Mean;
}
// * * * * * * * * * * * * * * * * * * * * * * * * * * * * * * * * * * * * * //

dimensions      [0 2 -2 0 0 0 0];

internalField   nonuniform List<symmTensor> 
12225
(
(0.023088 -4.76913e-05 0 0.00373809 0 0)
(0.0146141 -0.000183801 0 0.00208782 0 0)
(0.0132624 -0.000189167 0 0.00149154 0 0)
(0.0132989 -0.000199848 0 0.00114135 0 0)
(0.0138957 -0.000229858 0 0.000906898 0 0)
(0.0156404 -0.000275929 0 0.000739246 0 0)
(0.0194467 -0.000402999 0 0.000619487 0 0)
(0.0255813 -0.000522954 0 0.000524051 0 0)
(0.0357498 -0.000935045 0 0.00046893 0 0)
(0.0492769 -0.00106225 0 0.000403491 0 0)
(0.0725385 -0.00243072 0 0.000425479 0 0)
(0.100341 -0.00216266 0 0.000367349 0 0)
(0.155223 -0.00680403 0 0.000605084 0 0)
(0.213431 -0.00442097 0 0.000546003 0 0)
(0.351287 -0.0209838 0 0.00178075 0 0)
(0.484603 -0.00997259 0 0.00186107 0 0)
(0.872484 -0.0757503 0 0.00951319 0 0)
(1.2786 -0.0253585 0 0.0061444 0 0)
(0.0245962 0.000338586 0 0.00330602 0 0)
(0.0167586 0.000362083 0 0.00168212 0 0)
(0.0143685 0.000300576 0 0.00119282 0 0)
(0.013118 0.000242008 0 0.000966785 0 0)
(0.0122914 0.000189899 0 0.000835228 0 0)
(0.0119852 8.71278e-05 0 0.000751762 0 0)
(0.0124074 -0.000102845 0 0.000693565 0 0)
(0.013776 -0.000442068 0 0.00067826 0 0)
(0.0164683 -0.000895595 0 0.000670916 0 0)
(0.0210355 -0.00171336 0 0.000759949 0 0)
(0.0284156 -0.00271864 0 0.000839393 0 0)
(0.0401594 -0.00480193 0 0.00116293 0 0)
(0.0583756 -0.00728167 0 0.00147523 0 0)
(0.0876838 -0.0128161 0 0.00246836 0 0)
(0.132497 -0.0199874 0 0.00370662 0 0)
(0.210068 -0.0362096 0 0.0070583 0 0)
(0.32526 -0.0633674 0 0.0133578 0 0)
(0.542302 -0.123356 0 0.0312773 0 0)
(0.0250669 0.000204613 0 0.00411666 0 0)
(0.0172703 0.000391444 0 0.00216868 0 0)
(0.0149779 0.00018962 0 0.00148903 0 0)
(0.0138161 2.51064e-06 0 0.00120113 0 0)
(0.0131395 -0.000134645 0 0.00105255 0 0)
(0.0129947 -0.000282692 0 0.000972659 0 0)
(0.0134506 -0.000512551 0 0.000944015 0 0)
(0.0145927 -0.000882384 0 0.000964828 0 0)
(0.0166168 -0.00146139 0 0.0010596 0 0)
(0.0198204 -0.00233145 0 0.0012416 0 0)
(0.0246605 -0.00368661 0 0.0015797 0 0)
(0.0318249 -0.00572406 0 0.0021325 0 0)
(0.0423248 -0.00897784 0 0.00312121 0 0)
(0.0577517 -0.0140338 0 0.00479714 0 0)
(0.0804813 -0.0224367 0 0.00798794 0 0)
(0.113608 -0.0368567 0 0.0141992 0 0)
(0.16085 -0.0621709 0 0.0274271 0 0)
(0.216036 -0.112226 0 0.0660119 0 0)
(0.0247701 0.000404912 0 0.00472826 0 0)
(0.016583 0.000289622 0 0.00263337 0 0)
(0.0141172 0.000110703 0 0.00183563 0 0)
(0.0129018 -3.60567e-05 0 0.00150863 0 0)
(0.012182 -0.000180269 0 0.00135445 0 0)
(0.011958 -0.00037923 0 0.00128602 0 0)
(0.0122917 -0.000687952 0 0.00127764 0 0)
(0.0132924 -0.00117088 0 0.00134281 0 0)
(0.0151409 -0.00189678 0 0.00150747 0 0)
(0.0181346 -0.00298527 0 0.00181505 0 0)
(0.0226253 -0.00461732 0 0.00235032 0 0)
(0.0292533 -0.00707262 0 0.00321723 0 0)
(0.0386825 -0.0108868 0 0.00473253 0 0)
(0.0521875 -0.0166962 0 0.00723915 0 0)
(0.0707424 -0.0261933 0 0.0120218 0 0)
(0.0957357 -0.0410876 0 0.0206872 0 0)
(0.126097 -0.0661785 0 0.0394983 0 0)
(0.155993 -0.103105 0 0.0760804 0 0)
(0.0253913 0.000214767 0 0.00498204 0 0)
(0.0168085 0.000335144 0 0.00287564 0 0)
(0.0141489 9.09299e-05 0 0.00200993 0 0)
(0.0131278 -0.000136255 0 0.00167681 0 0)
(0.0126028 -0.000322605 0 0.00155321 0 0)
(0.0124213 -0.000548836 0 0.00153372 0 0)
(0.0126839 -0.000891865 0 0.00159077 0 0)
(0.0135464 -0.00143692 0 0.00174533 0 0)
(0.0152006 -0.00227928 0 0.00203645 0 0)
(0.0178852 -0.00355926 0 0.00253896 0 0)
(0.0219681 -0.00547391 0 0.00335032 0 0)
(0.0279362 -0.00835869 0 0.00467377 0 0)
(0.0365121 -0.0126893 0 0.00682111 0 0)
(0.0483875 -0.0192989 0 0.010459 0 0)
(0.0644596 -0.0293646 0 0.0167098 0 0)
(0.0844509 -0.0448494 0 0.0281575 0 0)
(0.107511 -0.0675323 0 0.0485679 0 0)
(0.128763 -0.0978721 0 0.0849037 0 0)
(0.0252944 0.000182489 0 0.00530177 0 0)
(0.0167646 2.68976e-05 0 0.0032161 0 0)
(0.0144958 -0.000150402 0 0.00225866 0 0)
(0.013548 -0.000331557 0 0.00189766 0 0)
(0.0129415 -0.0005183 0 0.00177763 0 0)
(0.0126927 -0.00077721 0 0.00179087 0 0)
(0.0129372 -0.0011824 0 0.00191293 0 0)
(0.0138013 -0.00181914 0 0.00216485 0 0)
(0.0154357 -0.00279522 0 0.00260084 0 0)
(0.0180293 -0.00425848 0 0.00330907 0 0)
(0.0218748 -0.00643004 0 0.00443322 0 0)
(0.0273365 -0.00962835 0 0.0062118 0 0)
(0.0349315 -0.0143542 0 0.00905742 0 0)
(0.0450516 -0.0213078 0 0.0137085 0 0)
(0.058101 -0.0314976 0 0.0214133 0 0)
(0.0735078 -0.0461373 0 0.0344709 0 0)
(0.0903885 -0.0659459 0 0.0558205 0 0)
(0.10549 -0.0904898 0 0.0901162 0 0)
(0.0250687 2.45078e-05 0 0.00531937 0 0)
(0.0173875 7.26131e-05 0 0.00339606 0 0)
(0.0153642 -0.000182318 0 0.00238126 0 0)
(0.0144858 -0.000460609 0 0.00202575 0 0)
(0.0139096 -0.000739592 0 0.00196701 0 0)
(0.0136615 -0.00111483 0 0.00207781 0 0)
(0.0138837 -0.00166562 0 0.00232328 0 0)
(0.0147153 -0.00246782 0 0.00273012 0 0)
(0.016286 -0.00362625 0 0.00336879 0 0)
(0.0187363 -0.00530083 0 0.00436106 0 0)
(0.0222827 -0.00772203 0 0.00588346 0 0)
(0.0271978 -0.011216 0 0.00823674 0 0)
(0.0338235 -0.0162285 0 0.0118798 0 0)
(0.0423504 -0.0233628 0 0.0176365 0 0)
(0.0528484 -0.0333128 0 0.0266909 0 0)
(0.0647107 -0.0467631 0 0.0410664 0 0)
(0.0770941 -0.063809 0 0.0629148 0 0)
(0.0878514 -0.0836351 0 0.0953486 0 0)
(0.0248137 -0.000347689 0 0.00609645 0 0)
(0.0165838 -0.000111378 0 0.00398715 0 0)
(0.0142314 -0.000320985 0 0.0028609 0 0)
(0.0132822 -0.000550751 0 0.00246436 0 0)
(0.0127717 -0.000755481 0 0.00239827 0 0)
(0.0126327 -0.00106346 0 0.00253098 0 0)
(0.0128933 -0.0015833 0 0.00283494 0 0)
(0.0136164 -0.00239466 0 0.00334962 0 0)
(0.0149133 -0.00359405 0 0.00416399 0 0)
(0.0169294 -0.0053282 0 0.00542222 0 0)
(0.0198587 -0.00781071 0 0.00732966 0 0)
(0.0239017 -0.0113307 0 0.0102235 0 0)
(0.029267 -0.016256 0 0.014593 0 0)
(0.0359961 -0.0230318 0 0.0212619 0 0)
(0.0439784 -0.0320857 0 0.0312937 0 0)
(0.0526516 -0.0437274 0 0.0463843 0 0)
(0.0613027 -0.0577111 0 0.0681075 0 0)
(0.0685729 -0.0731491 0 0.0987505 0 0)
(0.0261223 0.000125552 0 0.00620398 0 0)
(0.0179392 0.000109835 0 0.00424121 0 0)
(0.0155899 -0.00014805 0 0.00303843 0 0)
(0.0145308 -0.000491436 0 0.00261597 0 0)
(0.013935 -0.000829956 0 0.00260656 0 0)
(0.0137658 -0.00124127 0 0.00284699 0 0)
(0.0140098 -0.00183193 0 0.00330006 0 0)
(0.0146655 -0.00270285 0 0.00401222 0 0)
(0.0157849 -0.00396541 0 0.00508896 0 0)
(0.0174669 -0.00576545 0 0.00669946 0 0)
(0.0198598 -0.00829982 0 0.00907843 0 0)
(0.0230912 -0.0118188 0 0.0125934 0 0)
(0.0272618 -0.0166104 0 0.0177451 0 0)
(0.0323135 -0.0229655 0 0.0253173 0 0)
(0.038063 -0.0311 0 0.0362384 0 0)
(0.0440558 -0.0410426 0 0.0518908 0 0)
(0.0497895 -0.0523951 0 0.0734089 0 0)
(0.0544355 -0.0642832 0 0.10241 0 0)
(0.0250049 -0.000102279 0 0.006563 0 0)
(0.0169132 -5.68421e-05 0 0.00461824 0 0)
(0.0148551 -0.000254005 0 0.00342086 0 0)
(0.0140777 -0.000429899 0 0.00301438 0 0)
(0.0135689 -0.00060416 0 0.00303627 0 0)
(0.0132781 -0.00089439 0 0.00332437 0 0)
(0.0132505 -0.00139267 0 0.0038547 0 0)
(0.0135328 -0.00217895 0 0.00469374 0 0)
(0.0141977 -0.00335244 0 0.00596626 0 0)
(0.0153363 -0.00504156 0 0.00785741 0 0)
(0.0170591 -0.00740913 0 0.0106125 0 0)
(0.0194286 -0.0106422 0 0.0146025 0 0)
(0.0224636 -0.0149455 0 0.0203071 0 0)
(0.0260342 -0.020483 0 0.0284405 0 0)
(0.0299523 -0.0273385 0 0.0397767 0 0)
(0.0338087 -0.0353941 0 0.055435 0 0)
(0.0373494 -0.044218 0 0.0761872 0 0)
(0.0399531 -0.0530028 0 0.103185 0 0)
(0.0249404 8.78776e-05 0 0.00693058 0 0)
(0.0169449 0.000108101 0 0.00523868 0 0)
(0.0149128 -0.000313659 0 0.00401279 0 0)
(0.0142704 -0.000772566 0 0.00359362 0 0)
(0.0139547 -0.00116667 0 0.00367876 0 0)
(0.0138737 -0.00162019 0 0.00409952 0 0)
(0.0140886 -0.00227295 0 0.00481803 0 0)
(0.0146407 -0.00323048 0 0.00589881 0 0)
(0.015534 -0.00458828 0 0.00747678 0 0)
(0.0167603 -0.00644972 0 0.00975466 0 0)
(0.0183476 -0.00893511 0 0.0129892 0 0)
(0.0203093 -0.0121668 0 0.017547 0 0)
(0.0226655 -0.0162596 0 0.023864 0 0)
(0.0252877 -0.0212546 0 0.0325668 0 0)
(0.0280428 -0.0271113 0 0.0442554 0 0)
(0.0305932 -0.0335925 0 0.0598174 0 0)
(0.032841 -0.0402514 0 0.0796989 0 0)
(0.0343657 -0.0463787 0 0.104769 0 0)
(0.0235803 9.81226e-05 0 0.00705658 0 0)
(0.0160344 -9.17093e-05 0 0.00530468 0 0)
(0.014064 -0.000286459 0 0.00403805 0 0)
(0.0132842 -0.000572361 0 0.00360179 0 0)
(0.0128321 -0.000852344 0 0.00370436 0 0)
(0.0126232 -0.00121302 0 0.00416969 0 0)
(0.012664 -0.00176952 0 0.00495501 0 0)
(0.0129728 -0.00261365 0 0.0061336 0 0)
(0.0135552 -0.00382224 0 0.00785262 0 0)
(0.0143924 -0.00547092 0 0.0103225 0 0)
(0.0154803 -0.00764634 0 0.0137959 0 0)
(0.0167928 -0.0104305 0 0.018621 0 0)
(0.0183278 -0.0138832 0 0.0251849 0 0)
(0.0199867 -0.0179844 0 0.0340337 0 0)
(0.0216736 -0.0226228 0 0.0456229 0 0)
(0.0231928 -0.0275486 0 0.0606666 0 0)
(0.0244917 -0.0323169 0 0.0793801 0 0)
(0.0253972 -0.0363873 0 0.10246 0 0)
(0.0247765 -0.000292079 0 0.00771395 0 0)
(0.0167259 -0.000626335 0 0.00595064 0 0)
(0.0147269 -0.000976655 0 0.00464377 0 0)
(0.0139409 -0.00131361 0 0.00425059 0 0)
(0.0134139 -0.00158067 0 0.00443653 0 0)
(0.0130668 -0.00188158 0 0.00503263 0 0)
(0.0129415 -0.00234649 0 0.00600348 0 0)
(0.01308 -0.0030817 0 0.00741746 0 0)
(0.0134961 -0.00416346 0 0.00941423 0 0)
(0.0141635 -0.00564357 0 0.0122007 0 0)
(0.015038 -0.00756688 0 0.0160181 0 0)
(0.0160429 -0.00996458 0 0.0211898 0 0)
(0.0171167 -0.0128406 0 0.0280475 0 0)
(0.0181588 -0.0161182 0 0.0370504 0 0)
(0.019085 -0.0196423 0 0.0485278 0 0)
(0.0198312 -0.0231586 0 0.063043 0 0)
(0.0204118 -0.0262571 0 0.0806443 0 0)
(0.0208321 -0.0285271 0 0.101901 0 0)
(0.026351 -0.00045612 0 0.00817972 0 0)
(0.0182939 -0.000666691 0 0.00661467 0 0)
(0.0159423 -0.00088773 0 0.0052271 0 0)
(0.0149862 -0.00113888 0 0.00474678 0 0)
(0.0144267 -0.00131812 0 0.00489081 0 0)
(0.0140665 -0.00153344 0 0.00550816 0 0)
(0.0138811 -0.00192299 0 0.00656262 0 0)
(0.0138409 -0.0025658 0 0.00811041 0 0)
(0.0139293 -0.003493 0 0.0102752 0 0)
(0.0141435 -0.00471014 0 0.013245 0 0)
(0.0144706 -0.00621921 0 0.0172328 0 0)
(0.014872 -0.00801069 0 0.0225207 0 0)
(0.0152857 -0.0100523 0 0.0293748 0 0)
(0.0156443 -0.0122437 0 0.0381726 0 0)
(0.0158768 -0.0144226 0 0.0491211 0 0)
(0.0159726 -0.0163636 0 0.0626764 0 0)
(0.0159907 -0.017707 0 0.0787436 0 0)
(0.0160168 -0.0181611 0 0.0978197 0 0)
(0.0253649 0.000243528 0 0.00888398 0 0)
(0.0162615 -0.000184929 0 0.00739164 0 0)
(0.0137207 -0.000423344 0 0.00598028 0 0)
(0.0128327 -0.000598071 0 0.0055885 0 0)
(0.0122988 -0.000725334 0 0.00588353 0 0)
(0.0118454 -0.000870944 0 0.00666365 0 0)
(0.011497 -0.00111048 0 0.0078707 0 0)
(0.0112972 -0.00150189 0 0.0095675 0 0)
(0.0112467 -0.00208072 0 0.0118893 0 0)
(0.0112953 -0.00285288 0 0.0150232 0 0)
(0.0113736 -0.00380347 0 0.0191582 0 0)
(0.0114226 -0.0048831 0 0.0245267 0 0)
(0.0114182 -0.00601961 0 0.0313158 0 0)
(0.0113574 -0.00707667 0 0.0398041 0 0)
(0.0112489 -0.0078943 0 0.0500806 0 0)
(0.0111409 -0.00827235 0 0.062482 0 0)
(0.0111639 -0.00794136 0 0.0768239 0 0)
(0.0113612 -0.0066876 0 0.0935022 0 0)
(0.0243389 5.93897e-05 0 0.00981398 0 0)
(0.0162757 -0.000353634 0 0.00852649 0 0)
(0.014101 -0.000746573 0 0.00689623 0 0)
(0.0132611 -0.000977205 0 0.00626929 0 0)
(0.012701 -0.000997882 0 0.00647885 0 0)
(0.0121523 -0.000957987 0 0.00730184 0 0)
(0.0116544 -0.00101338 0 0.00861295 0 0)
(0.0112844 -0.00123021 0 0.0104237 0 0)
(0.0110638 -0.0015799 0 0.0128404 0 0)
(0.0109496 -0.00198409 0 0.016025 0 0)
(0.0108804 -0.00236847 0 0.0201266 0 0)
(0.010816 -0.00266117 0 0.025319 0 0)
(0.0107568 -0.00279911 0 0.0317153 0 0)
(0.0107342 -0.00267508 0 0.039511 0 0)
(0.0107788 -0.00218111 0 0.0487043 0 0)
(0.0109731 -0.00115839 0 0.0595637 0 0)
(0.0114323 0.00055803 0 0.0718319 0 0)
(0.0122536 0.00314261 0 0.0858692 0 0)
(0.0259745 7.56751e-05 0 0.00996369 0 0)
(0.0173423 -0.000259798 0 0.00898356 0 0)
(0.014299 -0.000699106 0 0.00721593 0 0)
(0.012831 -0.000781281 0 0.00653891 0 0)
(0.0119314 -0.00058953 0 0.00673566 0 0)
(0.0112964 -0.000336972 0 0.00754716 0 0)
(0.0108175 -0.000166004 0 0.0088523 0 0)
(0.0104536 -9.69067e-05 0 0.010652 0 0)
(0.0101834 -6.70415e-05 0 0.0130196 0 0)
(0.00997265 1.38503e-05 0 0.0160755 0 0)
(0.00978519 0.00021518 0 0.019925 0 0)
(0.00962778 0.000610305 0 0.0246909 0 0)
(0.00954337 0.00125809 0 0.0304285 0 0)
(0.0096056 0.00227317 0 0.0372636 0 0)
(0.0098667 0.00372884 0 0.0451298 0 0)
(0.0104144 0.00577161 0 0.0542238 0 0)
(0.0113428 0.00845607 0 0.0642671 0 0)
(0.0127054 0.0119605 0 0.0755607 0 0)
(0.0240848 0.0002996 0 0.0102533 0 0)
(0.0154877 -0.000360796 0 0.00958645 0 0)
(0.0125441 -0.000827705 0 0.00802203 0 0)
(0.0109968 -0.000900491 0 0.00742121 0 0)
(0.00999569 -0.000743036 0 0.00761584 0 0)
(0.009311 -0.000519369 0 0.008395 0 0)
(0.0088484 -0.000319406 0 0.00962986 0 0)
(0.00857214 -0.000136574 0 0.0112908 0 0)
(0.00846741 0.000102827 0 0.0134199 0 0)
(0.00848813 0.000491058 0 0.0161032 0 0)
(0.00857653 0.00109449 0 0.0194075 0 0)
(0.00872359 0.00197208 0 0.0234085 0 0)
(0.0089742 0.00316185 0 0.0281176 0 0)
(0.00941313 0.00474187 0 0.0336096 0 0)
(0.010105 0.00675511 0 0.0397925 0 0)
(0.0111565 0.00930179 0 0.0468154 0 0)
(0.0126318 0.0124002 0 0.0544279 0 0)
(0.0146268 0.0161768 0 0.0628505 0 0)
(0.0244177 -5.5922e-05 0 0.0102458 0 0)
(0.0165068 -3.92768e-06 0 0.00958561 0 0)
(0.0133815 -0.000266827 0 0.00799416 0 0)
(0.0114439 -0.000221233 0 0.0071974 0 0)
(0.0103071 4.89802e-05 0 0.00716768 0 0)
(0.00964444 0.000364863 0 0.00772624 0 0)
(0.00924591 0.000682256 0 0.00872651 0 0)
(0.00904711 0.00106075 0 0.0100963 0 0)
(0.00905502 0.00159327 0 0.0118225 0 0)
(0.00925039 0.00235639 0 0.0139367 0 0)
(0.00959178 0.00338975 0 0.0164709 0 0)
(0.0100819 0.0047224 0 0.0194715 0 0)
(0.0107667 0.00636962 0 0.0229401 0 0)
(0.0117308 0.00837691 0 0.0269183 0 0)
(0.0130251 0.0107641 0 0.0313172 0 0)
(0.0147418 0.0135894 0 0.0362431 0 0)
(0.0169199 0.0168482 0 0.0414966 0 0)
(0.0196272 0.0206077 0 0.0472229 0 0)
(0.0239607 0.000160261 0 0.0109788 0 0)
(0.0153269 0.000616129 0 0.00942399 0 0)
(0.0124471 0.000498859 0 0.00723224 0 0)
(0.0111326 0.000496834 0 0.00635283 0 0)
(0.0104616 0.000661995 0 0.00626813 0 0)
(0.0101591 0.000916261 0 0.00665649 0 0)
(0.0100191 0.00126493 0 0.00737361 0 0)
(0.00996046 0.00176723 0 0.00835905 0 0)
(0.0100393 0.00247636 0 0.00959879 0 0)
(0.0103326 0.00342358 0 0.0111095 0 0)
(0.010876 0.00462203 0 0.0129046 0 0)
(0.0116944 0.00608954 0 0.0150009 0 0)
(0.0128124 0.00783681 0 0.0173862 0 0)
(0.0142817 0.00989576 0 0.0200811 0 0)
(0.0161181 0.0122715 0 0.0230212 0 0)
(0.0183961 0.0149952 0 0.0262787 0 0)
(0.0211303 0.0180549 0 0.0297298 0 0)
(0.0243749 0.021485 0 0.0334466 0 0)
(0.0238228 0.000325516 0 0.0100189 0 0)
(0.015079 0.000403945 0 0.00854001 0 0)
(0.0126975 0.00027735 0 0.00657574 0 0)
(0.0115962 0.00026117 0 0.00577968 0 0)
(0.0109225 0.000371564 0 0.00567451 0 0)
(0.0105481 0.00058798 0 0.00595701 0 0)
(0.0104045 0.000935992 0 0.00647587 0 0)
(0.0104744 0.00145989 0 0.00716726 0 0)
(0.0107823 0.00218472 0 0.00803029 0 0)
(0.0113373 0.00311563 0 0.00909236 0 0)
(0.0121339 0.00425221 0 0.0103665 0 0)
(0.0131935 0.00561059 0 0.011855 0 0)
(0.0145641 0.00720616 0 0.0135374 0 0)
(0.0163168 0.0090727 0 0.0154193 0 0)
(0.018476 0.0112092 0 0.0174488 0 0)
(0.0211086 0.0136336 0 0.0196859 0 0)
(0.0242134 0.0163197 0 0.0220445 0 0)
(0.0278151 0.0192841 0 0.0245664 0 0)
(0.0248825 0.000491323 0 0.00964564 0 0)
(0.0163293 0.000609696 0 0.00814679 0 0)
(0.013996 0.000492512 0 0.00620146 0 0)
(0.0129227 0.000538018 0 0.00530938 0 0)
(0.0122617 0.000687589 0 0.00505996 0 0)
(0.0119077 0.000899029 0 0.00516271 0 0)
(0.0117845 0.0012017 0 0.00545759 0 0)
(0.0118422 0.0016508 0 0.00587614 0 0)
(0.0120977 0.0022808 0 0.00641306 0 0)
(0.0126002 0.00310015 0 0.0070916 0 0)
(0.0133888 0.00410501 0 0.00792611 0 0)
(0.0145039 0.00530055 0 0.00891844 0 0)
(0.015979 0.00669127 0 0.01005 0 0)
(0.017862 0.00829893 0 0.0113183 0 0)
(0.0201598 0.0101207 0 0.0126825 0 0)
(0.0229205 0.0121681 0 0.0141873 0 0)
(0.0261576 0.0144297 0 0.0157721 0 0)
(0.029852 0.0169038 0 0.0174499 0 0)
(0.0245065 0.000290136 0 0.00919766 0 0)
(0.0162177 0.000316875 0 0.00723916 0 0)
(0.0139741 0.000201157 0 0.00544075 0 0)
(0.0129938 0.000236817 0 0.00466225 0 0)
(0.0123584 0.000377196 0 0.00440067 0 0)
(0.0119568 0.000601213 0 0.00441927 0 0)
(0.0117659 0.000925294 0 0.0045977 0 0)
(0.0117934 0.00137171 0 0.00487711 0 0)
(0.0120893 0.0019497 0 0.0052421 0 0)
(0.0127018 0.00265842 0 0.00569962 0 0)
(0.0136506 0.00350033 0 0.00625615 0 0)
(0.0149475 0.00449256 0 0.00691481 0 0)
(0.0166134 0.00565296 0 0.00766756 0 0)
(0.0186826 0.00700426 0 0.0085129 0 0)
(0.0211644 0.00854712 0 0.00942109 0 0)
(0.0240921 0.0102807 0 0.0104295 0 0)
(0.0274857 0.012197 0 0.0114957 0 0)
(0.0312963 0.014275 0 0.0126106 0 0)
(0.0258131 0.000312947 0 0.00804831 0 0)
(0.017818 0.000241821 0 0.00618434 0 0)
(0.0156728 0.000184952 0 0.00455374 0 0)
(0.0144866 0.000331526 0 0.00379923 0 0)
(0.0136999 0.0005454 0 0.00350202 0 0)
(0.0132949 0.000803092 0 0.00344648 0 0)
(0.0132083 0.00112433 0 0.00352322 0 0)
(0.0134116 0.0015354 0 0.00367743 0 0)
(0.013937 0.00205219 0 0.00389316 0 0)
(0.0148146 0.00267991 0 0.00417507 0 0)
(0.0160408 0.00342202 0 0.0045279 0 0)
(0.0176088 0.00429109 0 0.00495087 0 0)
(0.0195328 0.00529902 0 0.00543592 0 0)
(0.0218562 0.0064614 0 0.00597998 0 0)
(0.0245952 0.00777597 0 0.00656115 0 0)
(0.0278058 0.00924262 0 0.00720701 0 0)
(0.0315081 0.0108529 0 0.00789039 0 0)
(0.0356563 0.0125961 0 0.00860482 0 0)
(0.0248888 0.000222986 0 0.00738284 0 0)
(0.0172178 0.000273058 0 0.00544528 0 0)
(0.0152955 0.000255294 0 0.00402636 0 0)
(0.0143793 0.00032783 0 0.00333965 0 0)
(0.0137211 0.00045138 0 0.00306118 0 0)
(0.013265 0.000627159 0 0.00300012 0 0)
(0.0130203 0.000841007 0 0.00303716 0 0)
(0.0130247 0.00109805 0 0.00311402 0 0)
(0.0133385 0.00142469 0 0.00322024 0 0)
(0.0140006 0.00185027 0 0.00336745 0 0)
(0.0150125 0.00239421 0 0.00356501 0 0)
(0.0163711 0.0030662 0 0.00381247 0 0)
(0.0180931 0.00386489 0 0.00410334 0 0)
(0.0202257 0.00479091 0 0.00443545 0 0)
(0.0227783 0.0058324 0 0.00479194 0 0)
(0.0258124 0.00698993 0 0.00519556 0 0)
(0.0293325 0.00825731 0 0.00562747 0 0)
(0.0333012 0.00962758 0 0.00607021 0 0)
(0.025284 0.00029092 0 0.00669309 0 0)
(0.0174588 0.000216017 0 0.00446915 0 0)
(0.0152706 0.000181076 0 0.00319234 0 0)
(0.0141534 0.000224701 0 0.00265098 0 0)
(0.013424 0.000314361 0 0.00242395 0 0)
(0.0130527 0.000457288 0 0.00234385 0 0)
(0.0130017 0.000638741 0 0.00232176 0 0)
(0.0132138 0.000853761 0 0.00232552 0 0)
(0.0136817 0.00111839 0 0.00235497 0 0)
(0.0144345 0.00145262 0 0.00241741 0 0)
(0.0155037 0.00187025 0 0.00251545 0 0)
(0.0169194 0.00238155 0 0.00264692 0 0)
(0.0187114 0.00299157 0 0.00280766 0 0)
(0.0209185 0.00370396 0 0.00299596 0 0)
(0.0235411 0.0045133 0 0.00320114 0 0)
(0.0266208 0.00541657 0 0.00343944 0 0)
(0.0301761 0.00641101 0 0.00369775 0 0)
(0.0341487 0.00748775 0 0.00396504 0 0)
(0.0244532 -0.000232201 0 0.00594409 0 0)
(0.0167314 -0.000312915 0 0.00382418 0 0)
(0.0149142 -0.000211324 0 0.00274398 0 0)
(0.0140637 -5.25977e-05 0 0.00226836 0 0)
(0.0134797 7.43334e-05 0 0.00205049 0 0)
(0.0131952 0.000192291 0 0.00195408 0 0)
(0.0132296 0.000324243 0 0.00190271 0 0)
(0.0135456 0.000486357 0 0.00186626 0 0)
(0.0141299 0.000695679 0 0.00184383 0 0)
(0.0150008 0.000966206 0 0.00184308 0 0)
(0.0161887 0.00130562 0 0.00186746 0 0)
(0.0177376 0.00171943 0 0.00191498 0 0)
(0.0196979 0.00220963 0 0.00198299 0 0)
(0.0221212 0.00277723 0 0.00207031 0 0)
(0.0250067 0.00341548 0 0.00216932 0 0)
(0.0283869 0.00411891 0 0.00229307 0 0)
(0.0322554 0.00488103 0 0.00243125 0 0)
(0.0365503 0.00570065 0 0.00257238 0 0)
(0.0261731 -0.000135841 0 0.00503103 0 0)
(0.0182022 -5.52531e-05 0 0.00289576 0 0)
(0.0159999 1.32432e-06 0 0.00204652 0 0)
(0.0148315 8.89228e-05 0 0.00170415 0 0)
(0.0139791 0.000173573 0 0.00153973 0 0)
(0.0134387 0.000236641 0 0.00144673 0 0)
(0.0132684 0.000300436 0 0.00137838 0 0)
(0.0134563 0.000396938 0 0.0013224 0 0)
(0.0139653 0.000540728 0 0.0012806 0 0)
(0.0147704 0.000729055 0 0.00125568 0 0)
(0.0158741 0.000956818 0 0.00124732 0 0)
(0.0173158 0.00122649 0 0.00125379 0 0)
(0.0191538 0.00154427 0 0.00127478 0 0)
(0.021444 0.00191682 0 0.00131072 0 0)
(0.0241875 0.00234445 0 0.00135771 0 0)
(0.0274175 0.00282607 0 0.0014242 0 0)
(0.0311305 0.00335903 0 0.00150332 0 0)
(0.0352488 0.0039441 0 0.00158682 0 0)
(0.0245898 -3.27127e-05 0 0.00398717 0 0)
(0.0180378 -0.000302205 0 0.0022495 0 0)
(0.0161646 -0.000353382 0 0.00167202 0 0)
(0.014893 -0.000307257 0 0.00141487 0 0)
(0.014094 -0.00028146 0 0.00126812 0 0)
(0.0137808 -0.000287299 0 0.00116617 0 0)
(0.0137842 -0.000295505 0 0.00108441 0 0)
(0.0139842 -0.000277942 0 0.00101726 0 0)
(0.0144008 -0.00022188 0 0.000963682 0 0)
(0.0151275 -0.000126733 0 0.000922071 0 0)
(0.0162542 6.13852e-06 0 0.000890139 0 0)
(0.0178433 0.000179508 0 0.000865967 0 0)
(0.0199301 0.000398758 0 0.000849442 0 0)
(0.0225488 0.000668093 0 0.000840338 0 0)
(0.0256914 0.000988397 0 0.000836863 0 0)
(0.0294267 0.00135604 0 0.000845116 0 0)
(0.0337851 0.00177185 0 0.000859621 0 0)
(0.0387341 0.00222531 0 0.000874551 0 0)
(0.0245796 3.30644e-05 0 0.00392045 0 0)
(0.0170084 0.000102081 0 0.0022172 0 0)
(0.0152252 8.43009e-05 0 0.00165677 0 0)
(0.0140788 0.00010575 0 0.00135988 0 0)
(0.0130854 9.18859e-05 0 0.00116824 0 0)
(0.0125145 7.53572e-05 0 0.00103127 0 0)
(0.0125083 8.65142e-05 0 0.000926972 0 0)
(0.0130315 0.000119489 0 0.000844553 0 0)
(0.0140249 0.000157552 0 0.000778107 0 0)
(0.0154769 0.000194938 0 0.000723583 0 0)
(0.0174374 0.000239833 0 0.000677992 0 0)
(0.0200228 0.000305479 0 0.000639535 0 0)
(0.0233769 0.000401489 0 0.000607363 0 0)
(0.0276513 0.000529344 0 0.000579529 0 0)
(0.0329354 0.000687702 0 0.000554084 0 0)
(0.0393851 0.000870823 0 0.00053668 0 0)
(0.0469989 0.00107626 0 0.000520181 0 0)
(0.0558545 0.0013031 0 0.000496553 0 0)
(0.0133036 -0.00785562 6.03702e-23 0.0125923 -6.25895e-23 3.15513e-38)
(0.0715532 -0.0100379 -1.22456e-22 0.0160907 2.91777e-24 3.1104e-38)
(0.171063 -0.0137891 0 0.0293792 0 0)
(0.295805 -0.0163257 0 0.0499945 0 0)
(0.409332 -0.0214885 0 0.0723691 0 0)
(0.533611 -0.0414262 2.15914e-23 0.0960482 6.24017e-23 2.92956e-38)
(0.695022 -0.0807128 0 0.117086 0 0)
(0.925175 -0.135375 0 0.128194 0 0)
(1.24196 -0.192909 0 0.127716 0 0)
(1.64528 -0.2431 0 0.1191 0 0)
(2.12386 -0.279893 2.22335e-22 0.105614 4.02556e-23 2.71226e-38)
(2.65393 -0.296269 0 0.0890075 0 0)
(3.2029 -0.289022 0 0.0736341 0 0)
(3.74052 -0.264434 0 0.0613022 0 0)
(4.2457 -0.231295 0 0.0522103 0 0)
(4.70118 -0.193024 4.41644e-22 0.0459758 9.63162e-23 2.50613e-38)
(5.09461 -0.149863 0 0.042044 0 0)
(5.41884 -0.104219 0 0.0410857 0 0)
(5.67086 -0.0612188 0 0.0430247 0 0)
(5.8511 -0.0239122 0 0.0468509 0 0)
(5.96773 0.00385069 0 0.0546561 0 0)
(6.04726 0.0194428 0 0.0639582 0 0)
(6.09649 0.032441 0 0.073746 0 0)
(6.1159 0.0434626 -3.64414e-22 0.0855323 1.51617e-22 2.19988e-38)
(6.12262 0.0413007 5.9084e-22 0.0976806 -1.52145e-22 2.16351e-38)
(6.13411 0.0303789 -8.44421e-22 0.111245 1.50454e-22 2.12755e-38)
(6.18314 0.012342 -1.12033e-21 0.133873 1.40002e-22 2.09199e-38)
(6.27843 -0.0251057 0 0.145303 0 0)
(6.44326 -0.0633683 0 0.148472 0 0)
(6.6861 -0.11823 2.03534e-21 0.147629 -1.17536e-22 1.98767e-38)
(7.01046 -0.180224 2.37461e-21 0.144312 -1.50464e-22 1.95367e-38)
(7.43135 -0.236847 0 0.137984 0 0)
(7.93603 -0.280699 0 0.137644 0 0)
(8.50855 -0.312806 3.43484e-21 0.136105 -1.05369e-22 1.85409e-38)
(9.13117 -0.338985 0 0.142837 0 0)
(9.78182 -0.344777 0 0.142762 0 0)
(10.4611 -0.36966 -4.61612e-21 0.151851 1.42086e-22 1.75815e-38)
(11.1764 -0.398174 0 0.155865 0 0)
(11.9314 -0.425376 -5.47706e-21 0.160395 1.6129e-22 1.69624e-38)
(12.7066 -0.432866 -1.18239e-20 0.154555 3.37421e-22 6.66358e-38)
(13.4887 -0.427371 0 0.149378 0 0)
(14.282 -0.426779 0 0.137896 0 0)
(15.0962 -0.445886 0 0.121557 0 0)
(15.9222 -0.451467 0 0.118491 0 0)
(16.7173 -0.431595 0 0.118338 0 0)
(17.5123 -0.41963 -1.67929e-20 0.127974 3.77304e-22 5.96889e-38)
(18.2281 -0.418475 -1.74495e-20 0.13322 3.60727e-22 5.85873e-38)
(18.9233 -0.411328 -1.8002e-20 0.133134 3.3796e-22 5.75018e-38)
(19.5244 -0.38325 0 0.132866 0 0)
(19.994 -0.33083 1.89274e-20 0.133646 -4.01388e-22 5.53769e-38)
(20.4051 -0.328033 0 0.130361 0 0)
(20.8593 -0.318391 -1.95922e-20 0.113338 3.69076e-22 5.33138e-38)
(21.2564 -0.30747 -1.98576e-20 0.113697 3.43655e-22 5.23054e-38)
(21.6095 -0.259089 0 0.108391 0 0)
(21.7829 -0.240814 0 0.120539 0 0)
(21.9158 -0.206585 0 0.127989 0 0)
(21.9801 -0.220105 -2.06425e-20 0.136809 2.4108e-22 4.84191e-38)
(22.1096 -0.245835 0 0.125775 0 0)
(22.3082 -0.268713 0 0.134978 0 0)
(22.5447 -0.303469 0 0.14448 0 0)
(22.811 -0.279335 0 0.140664 0 0)
(23.0843 -0.279187 0 0.142007 0 0)
(23.3796 -0.302021 0 0.135784 0 0)
(23.7691 -0.328329 0 0.130404 0 0)
(24.2194 -0.330308 0 0.13477 0 0)
(24.6554 -0.335157 2.34725e-20 0.137302 -4.03766e-22 4.0513e-38)
(25.1522 -0.340006 0 0.130187 0 0)
(25.6628 -0.33638 0 0.120566 0 0)
(26.175 -0.337221 -2.47027e-20 0.115102 4.32315e-22 3.8121e-38)
(26.6049 -0.319608 -2.5124e-20 0.10598 3.97784e-22 3.73499e-38)
(26.9857 -0.313518 0 0.0978221 0 0)
(27.3325 -0.258746 2.57863e-20 0.0932663 -3.31144e-22 3.58452e-38)
(27.5078 -0.219955 -2.58523e-20 0.109775 2.53347e-22 3.51109e-38)
(27.6924 -0.213974 0 0.113135 0 0)
(27.8836 -0.229915 2.55797e-20 0.114224 -1.64428e-22 3.36779e-38)
(28.0748 -0.246999 0 0.113099 0 0)
(28.2957 -0.246644 0 0.106459 0 0)
(28.3714 -0.199653 -2.5047e-20 0.110418 1.60046e-22 3.16175e-38)
(28.3243 -0.167713 0 0.10461 0 0)
(28.1579 -0.163747 2.46336e-20 0.0955219 -1.19753e-22 3.0302e-38)
(28.0524 -0.130762 0 0.0857357 0 0)
(27.7815 -0.132141 -2.45238e-20 0.0848239 1.69508e-22 2.90319e-38)
(27.6193 -0.102635 -2.44484e-20 0.0786426 1.82656e-22 2.84134e-38)
(27.2162 -0.080804 -2.43837e-20 0.084916 1.92559e-22 2.78054e-38)
(27.2274 -0.149929 -4.86833e-20 0.0815728 4.30986e-22 1.08832e-37)
(27.2826 -0.144205 4.85498e-20 0.0791309 -4.24751e-22 1.06484e-37)
(27.3219 -0.105142 0 0.0756704 0 0)
(27.2455 -0.0833265 0 0.0788446 0 0)
(27.1363 -0.0859301 0 0.0714084 0 0)
(27.1767 -0.0946416 4.72657e-20 0.0676596 -2.74444e-22 9.74993e-38)
(27.0933 -0.0438758 4.70899e-20 0.0726302 -2.89787e-22 9.53507e-38)
(26.955 -0.0638542 -4.69907e-20 0.0821872 4.16927e-22 9.32396e-38)
(27.1581 -0.105019 0 0.0831608 0 0)
(27.2821 -0.11964 4.69305e-20 0.092888 -3.95896e-22 8.91278e-38)
(27.6841 -0.213493 4.66233e-20 0.0967404 -4.13014e-22 8.7127e-38)
(28.4407 -0.263184 4.64875e-20 0.0855421 -4.7051e-22 8.51626e-38)
(29.3183 -0.263131 0 0.0771493 0 0)
(30.074 -0.208344 0 0.0712638 0 0)
(30.546 -0.137331 0 0.0659777 0 0)
(30.5967 -0.0334688 4.583e-20 0.0632403 -2.24901e-22 7.76583e-38)
(30.3284 0.0317635 0 0.0545882 0 0)
(29.7339 0.128499 0 0.0594555 0 0)
(28.7333 0.123705 -4.24796e-20 0.0802433 7.37163e-23 7.23816e-38)
(27.9054 0.1139 0 0.0765786 0 0)
(27.1813 0.061076 0 0.0796153 0 0)
(26.7255 0.0864616 -3.84014e-20 0.0832942 7.00168e-23 6.73873e-38)
(25.9257 0.0100935 0 0.118596 0 0)
(25.8369 -0.12953 0 0.110561 0 0)
(26.1548 -0.183765 3.55459e-20 0.095666 -2.77073e-22 6.26665e-38)
(26.6993 -0.198307 3.59921e-20 0.0856931 -3.82368e-22 6.11538e-38)
(27.2974 -0.194641 0 0.0756273 0 0)
(27.9092 -0.171015 -3.76413e-20 0.0649426 4.67372e-22 5.82162e-38)
(28.4042 -0.134808 0 0.0559276 0 0)
(28.8002 -0.100742 3.90188e-20 0.0501552 -4.0254e-22 5.5389e-38)
(29.0354 -0.0661112 0 0.0473052 0 0)
(29.131 -0.0344849 3.89819e-20 0.0432215 -3.37251e-22 5.26664e-38)
(29.0864 -0.000658124 3.84311e-20 0.0388557 -2.84106e-22 5.13432e-38)
(28.8852 0.032841 0 0.0355906 0 0)
(28.5235 0.0632247 0 0.033236 0 0)
(28.0173 0.0859288 0 0.0308997 0 0)
(27.3816 0.105797 0 0.0317379 0 0)
(26.732 0.10743 0 0.0291697 0 0)
(26.0418 0.12978 0 0.0350999 0 0)
(25.2902 0.108301 0 0.0508423 0 0)
(24.7606 0.0743736 2.74412e-20 0.0452141 -1.78104e-22 4.16323e-38)
(24.313 0.0607891 -2.63356e-20 0.04063 1.86023e-22 4.05237e-38)
(23.9648 0.045343 0 0.0378398 0 0)
(23.6725 0.0288075 0 0.0351526 0 0)
(23.4576 0.0238958 0 0.0305764 0 0)
(23.2152 0.0384709 0 0.0283738 0 0)
(22.8818 0.0554156 -4.74032e-20 0.0281229 5.77335e-22 1.41247e-37)
(22.3952 0.0669041 0 0.0280105 0 0)
(21.9087 0.0765771 4.60148e-20 0.0286644 -3.30112e-22 1.33487e-37)
(21.5107 0.0264258 -4.47267e-20 0.0541261 2.66033e-22 1.29721e-37)
(21.8633 -0.1154 0 0.0735278 0 0)
(22.5915 -0.161729 0 0.0612424 0 0)
(23.5227 -0.164224 0 0.0520673 0 0)
(24.554 -0.188698 4.85936e-20 0.0565376 -8.37007e-22 1.15422e-37)
(25.7323 -0.175457 5.08596e-20 0.0421127 -7.45951e-22 1.12036e-37)
(26.5818 -0.113219 0 0.0317657 0 0)
(27.1933 -0.0620081 5.35542e-20 0.0278154 -4.7782e-22 1.05478e-37)
(27.4541 -0.0139505 5.35793e-20 0.0257627 -3.59393e-22 1.02303e-37)
(27.4805 0.024068 -5.28797e-20 0.0247231 3.05144e-22 9.91939e-38)
(27.2604 0.0537903 0 0.027754 0 0)
(26.9401 0.0589372 0 0.0324823 0 0)
(26.5748 0.0686952 -4.64403e-20 0.0313825 1.06487e-22 9.02528e-38)
(26.0403 0.0981927 0 0.0280309 0 0)
(25.3013 0.131247 0 0.026355 0 0)
(24.3503 0.160008 0 0.0262932 0 0)
(23.2347 0.180516 0 0.0266642 0 0)
(21.9927 0.193068 2.85207e-20 0.0258864 7.15436e-23 7.66017e-38)
(20.6793 0.201396 2.488e-20 0.0245845 2.70217e-23 7.40545e-38)
(19.3335 0.202801 0 0.0246456 0 0)
(18.001 0.196531 1.88996e-20 0.024659 -7.73559e-23 6.91353e-38)
(16.778 0.173888 0 0.029315 0 0)
(15.8796 0.116273 0 0.036019 0 0)
(15.4276 0.0580214 1.46321e-20 0.0360877 -2.57093e-22 6.21791e-38)
(15.1918 0.0398079 0 0.0303783 0 0)