/*--------------------------------*- C++ -*----------------------------------*\
  =========                 |
  \\      /  F ield         | OpenFOAM: The Open Source CFD Toolbox
   \\    /   O peration     | Website:  https://openfoam.org
    \\  /    A nd           | Version:  6
     \\/     M anipulation  |
\*---------------------------------------------------------------------------*/
FoamFile
{
    version     2.0;
    format      ascii;
    class       volScalarField;
    location    "0.15";
    object      k;
}
// * * * * * * * * * * * * * * * * * * * * * * * * * * * * * * * * * * * * * //

dimensions      [0 2 -2 0 0 0 0];

internalField   nonuniform List<scalar> 
12225
(
0.00136987
0.00112392
0.000561733
0.000233018
0.000153635
0.000159179
0.000194085
0.000207772
0.000214375
0.000232196
0.000314242
0.00067462
0.00118981
0.00144696
0.0015106
0.00149134
0.00129105
0.000728627
4.79028e-05
7.63214e-05
6.76927e-05
4.41849e-05
3.75843e-05
4.05888e-05
5.89891e-05
7.61625e-05
8.27325e-05
8.68038e-05
9.50533e-05
0.000117779
0.000169601
0.00028768
0.000527671
0.000715084
0.000783987
0.000781874
2.03855e-05
1.61705e-05
1.66887e-05
1.76186e-05
1.80896e-05
1.85842e-05
1.97954e-05
2.12821e-05
2.20811e-05
2.2465e-05
2.30462e-05
2.44504e-05
2.83999e-05
4.0009e-05
7.64063e-05
0.000121604
0.000161015
0.000196865
2.00218e-05
1.99936e-05
2.00202e-05
2.08211e-05
2.41497e-05
2.59465e-05
2.60203e-05
2.50977e-05
2.25861e-05
2.10583e-05
2.00315e-05
1.80014e-05
1.39178e-05
1.24381e-05
1.26865e-05
1.41704e-05
1.87017e-05
2.3967e-05
2.03667e-05
2.02554e-05
2.20525e-05
3.44617e-05
5.24099e-05
5.62276e-05
5.3642e-05
4.08417e-05
2.98824e-05
2.45348e-05
2.21085e-05
2.08198e-05
1.99537e-05
1.94784e-05
1.93375e-05
1.93646e-05
1.97495e-05
2.03764e-05
2.14039e-05
2.03047e-05
2.03185e-05
2.20897e-05
2.53941e-05
2.63125e-05
2.61006e-05
2.44209e-05
2.22709e-05
2.10646e-05
2.05058e-05
2.03449e-05
2.03074e-05
2.03029e-05
2.03122e-05
2.03604e-05
2.05018e-05
2.08269e-05
2.24901e-05
2.068e-05
2.08635e-05
2.36835e-05
2.68282e-05
2.7355e-05
2.66994e-05
2.42846e-05
2.28031e-05
2.23029e-05
2.21945e-05
2.19524e-05
2.15692e-05
2.13208e-05
2.12211e-05
2.12088e-05
2.12405e-05
2.14171e-05
2.28818e-05
2.12315e-05
2.11539e-05
2.22064e-05
2.34206e-05
2.36875e-05
2.33612e-05
2.22398e-05
2.1814e-05
2.17498e-05
2.16688e-05
2.14471e-05
2.1117e-05
2.09141e-05
2.08284e-05
2.08171e-05
2.08531e-05
2.11968e-05
2.02596e-05
2.1543e-05
3.39843e-05
4.67915e-05
4.4759e-05
3.50092e-05
2.84884e-05
2.54288e-05
2.43184e-05
2.33445e-05
2.22714e-05
2.17245e-05
2.15584e-05
2.15444e-05
2.15695e-05
2.16387e-05
2.17648e-05
2.20222e-05
2.043e-05
2.43315e-05
3.24929e-05
3.2623e-05
2.83973e-05
2.39206e-05
2.20794e-05
2.14592e-05
2.13081e-05
2.13061e-05
2.14339e-05
2.20911e-05
2.36648e-05
2.49435e-05
2.57512e-05
2.61389e-05
2.62458e-05
2.62065e-05
2.64645e-05
2.60893e-05
2.49797e-05
2.62086e-05
2.85336e-05
2.69023e-05
2.47968e-05
2.39915e-05
2.35387e-05
2.33994e-05
2.34201e-05
2.36626e-05
2.47655e-05
2.61117e-05
2.67862e-05
2.69821e-05
2.69752e-05
2.68137e-05
2.47649e-05
2.39817e-05
2.1759e-05
2.15188e-05
2.20805e-05
2.54606e-05
2.92531e-05
3.05527e-05
3.0632e-05
3.00107e-05
2.79574e-05
2.63299e-05
2.51565e-05
2.41146e-05
2.3267e-05
2.24749e-05
2.19594e-05
2.15359e-05
2.23289e-05
2.36526e-05
2.30643e-05
2.14772e-05
2.13684e-05
2.23863e-05
2.63682e-05
2.91325e-05
2.98402e-05
2.96884e-05
2.79999e-05
2.49246e-05
2.32312e-05
2.24642e-05
2.21904e-05
2.21364e-05
2.21552e-05
2.22924e-05
2.79344e-05
3.44454e-05
2.94345e-05
2.21395e-05
2.08471e-05
2.1043e-05
2.27926e-05
2.48806e-05
2.56497e-05
2.57201e-05
2.53977e-05
2.40409e-05
2.28487e-05
2.22107e-05
2.18502e-05
2.1691e-05
2.1648e-05
2.16423e-05
2.1198e-05
2.35944e-05
2.28318e-05
2.25576e-05
2.31355e-05
2.47593e-05
2.54822e-05
2.55625e-05
2.53192e-05
2.40914e-05
2.28765e-05
2.24041e-05
2.23672e-05
2.25866e-05
2.37796e-05
2.48934e-05
2.49615e-05
2.4076e-05
2.12816e-05
2.11319e-05
2.09515e-05
2.14531e-05
2.23952e-05
2.26291e-05
2.25542e-05
2.19296e-05
2.12093e-05
2.10058e-05
2.10618e-05
2.16865e-05
2.52687e-05
3.382e-05
3.74365e-05
3.77179e-05
3.66013e-05
3.17373e-05
2.22552e-05
2.47346e-05
2.44162e-05
2.24729e-05
2.14263e-05
2.09448e-05
2.07367e-05
2.067e-05
2.06602e-05
2.06674e-05
2.07017e-05
2.08051e-05
2.10276e-05
2.12014e-05
2.12532e-05
2.12447e-05
2.12333e-05
2.12835e-05
2.03931e-05
2.09415e-05
2.14063e-05
2.15937e-05
2.15261e-05
2.11567e-05
2.0797e-05
2.07067e-05
2.07268e-05
2.09242e-05
2.12723e-05
2.14607e-05
2.15428e-05
2.1598e-05
2.16905e-05
2.18919e-05
2.24549e-05
2.44759e-05
2.08088e-05
2.09865e-05
2.07181e-05
2.05265e-05
2.04899e-05
2.05032e-05
2.06239e-05
2.12052e-05
2.24426e-05
2.32201e-05
2.35325e-05
2.35777e-05
2.34991e-05
2.2977e-05
2.21193e-05
2.16387e-05
2.14537e-05
2.14232e-05
2.02381e-05
2.04453e-05
2.04274e-05
2.02622e-05
2.02338e-05
2.04429e-05
2.20902e-05
2.44006e-05
2.49092e-05
2.48483e-05
2.44331e-05
2.4121e-05
2.39667e-05
2.3815e-05
2.36961e-05
2.36465e-05
2.36479e-05
2.37233e-05
2.04931e-05
2.17582e-05
2.20847e-05
2.14157e-05
2.06719e-05
2.04112e-05
2.03422e-05
2.03437e-05
2.04055e-05
2.06433e-05
2.13604e-05
2.37974e-05
2.8889e-05
3.25123e-05
3.39318e-05
3.4059e-05
3.37991e-05
3.22836e-05
2.12115e-05
2.19433e-05
2.17051e-05
2.09679e-05
2.07245e-05
2.07176e-05
2.09462e-05
2.2012e-05
2.58271e-05
2.93403e-05
3.07043e-05
3.08623e-05
3.0567e-05
2.91787e-05
2.72746e-05
2.59402e-05
2.49274e-05
2.42618e-05
2.173e-05
2.1246e-05
2.09778e-05
2.08533e-05
2.08882e-05
2.12992e-05
2.33858e-05
3.26185e-05
5.86674e-05
7.42135e-05
7.61957e-05
7.21577e-05
5.50716e-05
3.9156e-05
3.00835e-05
2.52983e-05
2.28747e-05
2.16922e-05
2.6143e-05
2.32521e-05
2.29884e-05
2.36032e-05
2.48666e-05
2.83865e-05
4.1619e-05
7.37436e-05
9.92373e-05
0.00011365
0.000115154
0.000101586
6.55457e-05
4.28341e-05
3.11997e-05
2.55182e-05
2.27435e-05
2.14255e-05
2.5229e-05
2.48037e-05
2.26192e-05
2.19446e-05
2.19206e-05
2.2274e-05
2.37042e-05
2.7358e-05
3.51758e-05
5.79565e-05
8.85768e-05
9.87964e-05
9.53243e-05
7.27281e-05
4.78148e-05
3.46009e-05
2.77224e-05
2.42048e-05
2.95886e-05
3.21116e-05
2.75421e-05
2.37973e-05
2.34209e-05
2.48825e-05
3.6124e-05
5.58114e-05
6.01999e-05
5.93574e-05
5.20852e-05
4.04571e-05
3.33934e-05
2.96113e-05
2.7564e-05
2.60907e-05
2.47002e-05
2.36907e-05
2.01293e-05
2.03234e-05
2.03437e-05
2.03881e-05
2.05046e-05
2.06788e-05
2.07217e-05
2.0711e-05
2.06828e-05
2.05966e-05
2.04701e-05
2.03448e-05
2.00879e-05
1.95759e-05
1.89672e-05
1.84875e-05
1.82745e-05
1.8231e-05
2.0033e-05
1.85403e-05
1.46699e-05
1.54178e-05
1.66606e-05
1.65512e-05
1.49418e-05
1.35436e-05
1.32539e-05
1.3375e-05
1.42407e-05
1.72928e-05
2.13393e-05
2.50238e-05
2.7821e-05
2.92552e-05
2.95284e-05
2.91311e-05
2.16852e-05
3.15099e-05
5.615e-05
6.811e-05
6.59249e-05
5.48092e-05
3.96154e-05
3.40819e-05
3.40801e-05
3.94065e-05
6.39263e-05
0.000133353
0.000198305
0.00024112
0.000259343
0.000260712
0.000255202
0.000233414
0.00018989
0.00113074
0.00132101
0.00111387
0.00064823
0.000330945
0.000163411
0.000111415
0.000114732
0.000190287
0.000541872
0.000930653
0.00110273
0.00113992
0.00112289
0.000985773
0.00066184
0.000433151
0.00466196
0.0112542
0.0178055
0.0304642
0.0354752
0.0307186
0.0225041
0.0207529
0.0211089
0.0246461
0.0314657
0.0335032
0.0330255
0.0306082
0.0293897
0.0289191
0.0286781
0.0280134
0.0268467
0.0254378
0.0243838
0.0239832
0.0238441
0.0238202
0.0238594
0.0240416
0.02456
0.0252972
0.0260106
0.0267423
0.0274761
0.0285539
0.0297014
0.0303943
0.0306094
0.0304876
0.029733
0.0288906
0.0285495
0.0285604
0.0289341
0.0297788
0.030801
0.0317166
0.0326846
0.0339554
0.0356083
0.0367741
0.0370519
0.03697
0.0364352
0.0355174
0.0344635
0.0325166
0.0291127
0.0247112
0.0216477
0.0203856
0.0199007
0.0198021
0.0198232
0.019891
0.0199277
0.0200031
0.0202266
0.0208678
0.0213695
0.021745
0.0223837
0.023237
0.0245799
0.0271658
0.0343839
0.0442606
0.0489539
0.0554454
0.0680501
0.0757923
0.0829568
0.104479
0.129197
0.132367
0.121767
0.0850893
0.0640807
0.0603482
0.0614996
0.07911
0.118536
0.175424
0.304904
0.283045
0.151824
0.113802
0.106804
0.105425
0.105211
0.104775
0.102147
0.0975423
0.0900954
0.081597
0.0717108
0.0631155
0.0542212
0.048876
0.0451809
0.043633
0.0429911
0.042169
0.0418618
0.0416143
0.0415914
0.0416524
0.0417894
0.0418921
0.0419585
0.0420101
0.0420571
0.0421104
0.0422118
0.0423243
0.0425173
0.0427781
0.0436919
0.0504662
0.0466951
0.0479677
0.0531641
0.0573978
0.0598706
0.0674265
0.0927693
0.220944
0.588762
0.896903
0.876478
0.360157
0.198441
0.148165
0.121944
0.105949
0.0962986
0.0927482
0.092238
0.0921846
0.0913728
0.0904533
0.0896814
0.0891128
0.0879518
0.0869148
0.0861172
0.0843451
0.081742
0.0791777
0.0763017
0.0746698
0.0736184
0.0729306
0.0721618
0.0714834
0.0710036
0.0707578
0.0707358
0.0709178
0.0714002
0.0717401
0.0719185
0.0720193
0.0720892
0.0721824
0.0721136
0.0718501
0.0718581
0.0714365
0.0713375
0.0707705
0.0708183
0.0677725
0.0129376
0.0245319
0.0274588
0.0265498
0.0218621
0.0204854
0.0204876
0.0247223
0.0286762
0.0297945
0.030145
0.0297201
0.0285335
0.0282158
0.0287539
0.0305277
0.031138
0.0311759
0.0298992
0.0267715
0.0236952
0.0225158
0.0222188
0.022267
0.0225361
0.0230793
0.0239747
0.025417
0.0268734
0.0278901
0.0282077
0.027732
0.0266186
0.0254801
0.0249982
0.0250519
0.0252178
0.0253933
0.0256364
0.0259274
0.0260599
0.0260328
0.0258685
0.0254725
0.0250472
0.0248324
0.0247811
0.0248032
0.0247463
0.0244513
0.024135
0.0238114
0.0233748
0.0226212
0.0217289
0.0213097
0.0214543
0.0225684
0.0249227
0.0267414
0.0277926
0.0288072
0.0296111
0.0300488
0.0297287
0.0288234
0.0276941
0.0265466
0.026047
0.0267725
0.0307822
0.0336835
0.0336986
0.0333716
0.0337527
0.0362491
0.0455545
0.0539445
0.0596898
0.0717737
0.0863826
0.0893775
0.0800299
0.051986
0.038909
0.0364934
0.0385796
0.0495403
0.0944118
0.313623
0.335684
0.186189
0.122548
0.103679
0.0964186
0.0904053
0.083273
0.0757496
0.0677231
0.0599571
0.0522542
0.0455649
0.0399289
0.0358507
0.0321976
0.0298432
0.0281369
0.0273893
0.0270571
0.0268929
0.0268018
0.0267531
0.0267338
0.0268375
0.0269324
0.0272223
0.0274375
0.0274909
0.0274005
0.0270733
0.0264505
0.0256297
0.0246426
0.0236873
0.022974
0.0237771
0.0284815
0.0426846
0.0638446
0.0635857
0.0614249
0.0619513
0.0710383
0.18332
1.00661
1.20883
0.602869
0.203968
0.132377
0.116734
0.112067
0.110559
0.109835
0.108367
0.107267
0.105623
0.102946
0.100049
0.0959901
0.092742
0.090916
0.090267
0.0936544
0.0974159
0.0992739
0.100458
0.0998969
0.0966626
0.0921123
0.0867193
0.0802371
0.0745831
0.0708907
0.0683858
0.0665272
0.0649751
0.0635663
0.0624874
0.0615903
0.0608973
0.0601792
0.0595085
0.0581101
0.0558101
0.0542048
0.0518028
0.0507368
0.0484383
0.0480338
0.0516685
0.0160771
0.0240901
0.0242442
0.020038
0.0189527
0.0189348
0.0200329
0.0228045
0.0254816
0.0266249
0.0281406
0.0303466
0.0332696
0.0371535
0.0396042
0.0402307
0.0399143
0.0381387
0.0349597
0.0308371
0.0267858
0.0241725
0.0234247
0.0235605
0.0237126
0.0240853
0.0261665
0.0303625
0.0353763
0.0398211
0.0428771
0.0438259
0.0433095
0.0420951
0.0403135
0.0377372
0.0346092
0.0319829
0.0300883
0.028742
0.0274866
0.0257353
0.0225473
0.0214369
0.0214309
0.0223886
0.0243496
0.0258781
0.0269843
0.0288642
0.0312367
0.0339512
0.0372765
0.0403009
0.0424458
0.043969
0.0464481
0.0501108
0.0544098
0.0579117
0.062108
0.0688764
0.0761456
0.0800816
0.0810021
0.0795854
0.076325
0.0715409
0.0681363
0.0682537
0.0742575
0.081143
0.0814491
0.0789738
0.07815
0.0791056
0.0794167
0.0815827
0.0919507
0.0960591
0.0915794
0.0676574
0.0463998
0.0417395
0.0423234
0.0447823
0.0518319
0.0793747
0.214109
0.330244
0.190478
0.0961734
0.0757019
0.0673765
0.0580945
0.0493903
0.0429347
0.0377702
0.0341556
0.0303866
0.0279307
0.0251009
0.0226697
0.020634
0.0198839
0.0196489
0.0201224
0.022595
0.0240573
0.024688
0.0248747
0.0248161
0.0245437
0.0241858
0.0234996
0.0232785
0.0234467
0.0241166
0.0251767
0.0266123
0.0279322
0.0285654
0.0289551
0.0287436
0.0278194
0.0293203
0.0426074
0.0945035
0.138656
0.130804
0.0994108
0.0769404
0.115507
0.726579
1.16202
0.797612
0.255788
0.133366
0.11479
0.111257
0.110273
0.110311
0.112734
0.115252
0.116418
0.11656
0.113541
0.110303
0.101767
0.0914317
0.0819751
0.0736022
0.069829
0.0704286
0.0785274
0.0923396
0.10381
0.109002
0.110576
0.109644
0.106273
0.0997042
0.0905341
0.0808347
0.0723679
0.0660891
0.061474
0.0579713
0.0549013
0.0526069
0.0502968
0.047374
0.0423159
0.0364999
0.0307523
0.0272373
0.0236136
0.0217285
0.0198478
0.0153859
0.0155708
0.0228513
0.0237185
0.021755
0.0213607
0.0213804
0.0211911
0.0211806
0.0218573
0.0256964
0.0292229
0.0316715
0.0344548
0.0372245
0.0387002
0.0389976
0.0386646
0.0369294
0.033322
0.0285305
0.0243582
0.0220993
0.0216456
0.0235377
0.0238443
0.0247287
0.0291102
0.0375317
0.0457569
0.0522227
0.0557506
0.0576693
0.0589844
0.0601466
0.0613388
0.0611207
0.0584711
0.0504084
0.0415042
0.03648
0.0336542
0.0263405
0.0236757
0.0233253
0.0247579
0.0283531
0.0338894
0.0413196
0.0513823
0.0599963
0.0636939
0.0649755
0.0649798
0.0618792
0.0588495
0.058134
0.058105
0.0593992
0.0649431
0.0772568
0.0957348
0.110898
0.117223
0.119858
0.121084
0.121657
0.121356
0.119854
0.118379
0.118515
0.120518
0.121847
0.120898
0.118641
0.117243
0.116191
0.114185
0.109951
0.102109
0.0834855
0.060706
0.0474031
0.0456552
0.049546
0.0642416
0.110848
0.152204
0.188221
0.258885
0.23157
0.0860218
0.0540332
0.0446412
0.038471
0.03489
0.0318914
0.0298817
0.0279508
0.0266251
0.0247856
0.0226073
0.0209301
0.0205272
0.0205195
0.0213922
0.0239736
0.0283421
0.0327237
0.0347471
0.0355712
0.0352785
0.0327524
0.0317305
0.0303338
0.0261029
0.0232712
0.020866
0.0191949
0.0179689
0.0174291
0.0178433
0.0201974
0.0237626
0.0271372
0.0284639
0.0339058
0.0499272
0.137502
0.236747
0.229675
0.170912
0.12105
0.318303
1.02826
0.981903
0.356786
0.154585
0.119365
0.116241
0.120365
0.135392
0.15045
0.15764
0.161338
0.162846
0.163251
0.161513
0.157798
0.147643
0.129022
0.10352
0.0805657
0.0662376
0.0591665
0.0533397
0.0514347
0.060126
0.0794156
0.0971408
0.106436
0.10961
0.109521
0.106512
0.0999659
0.0910422
0.0812334
0.0725818
0.0662048
0.0626652
0.0608993
0.0602205
0.0601239
0.0602276
0.0606545
0.0610976
0.0612995
0.0613111
0.0610104
0.0592461
0.0576247
0.0137831
0.0217345
0.0256743
0.0307416
0.0337357
0.0362612
0.0373448
0.0384727
0.0424199
0.0490166
0.0522711
0.0534745
0.0528519
0.0473219
0.0434215
0.0425699
0.0420331
0.0411572
0.0380234
0.0340818
0.0272395
0.0219234
0.020693
0.0229777
0.0253342
0.029746
0.0388578
0.0483515
0.055932
0.0638961
0.0719888
0.0781185
0.0815237
0.0815001
0.0799685
0.077003
0.0733338
0.073996
0.072735
0.0576347
0.0367742
0.028882
0.027778
0.0306797
0.0397576
0.0576068
0.0692775
0.0736782
0.0748708
0.0748048
0.0717477
0.0653437
0.0585501
0.0516145
0.0477187
0.0467885
0.0480789
0.0555166
0.0705582
0.0921013
0.11232
0.120598
0.124043
0.125689
0.126703
0.127624
0.128717
0.129107
0.129024
0.128294
0.126593
0.124121
0.118692
0.109963
0.100886
0.0909667
0.0810405
0.072777
0.0613528
0.0494426
0.0404279
0.0385684
0.0418502
0.0619711
0.134809
0.202345
0.212667
0.210581
0.237125
0.108232
0.0496038
0.0367447
0.0319475
0.0292399
0.0281705
0.0275685
0.027064
0.0260775
0.0243053
0.021449
0.0205663
0.0205864
0.0218498
0.0252172
0.0329993
0.0466741
0.0593802
0.0642468
0.0658505
0.0654935
0.0608305
0.0540156
0.0485571
0.0443593
0.0416092
0.0386841
0.0339437
0.0288431
0.0222136
0.0173672
0.0144158
0.0126389
0.0119028
0.012461
0.0140956
0.0226654
0.0430595
0.154111
0.29768
0.300559
0.240173
0.180282
0.652688
1.00111
0.545105
0.204928
0.128323
0.119906
0.124566
0.147794
0.162301
0.168181
0.17107
0.173806
0.177452
0.180444
0.182128
0.182934
0.181832
0.174904
0.153969
0.116908
0.082544
0.0659207
0.0532345
0.0454952
0.040728
0.0406755
0.0483136
0.0674449
0.0859131
0.0965415
0.10042
0.100203
0.0954776
0.0850641
0.0749937
0.0668839
0.0608637
0.0570552
0.0551707
0.0545975
0.0545721
0.0547243
0.0548631
0.0548221
0.0544129
0.0527819
0.0473067
0.0467594
0.0122002
0.0201976
0.0248885
0.0443836
0.0598259
0.0653998
0.0663326
0.0663762
0.0646451
0.0615958
0.057452
0.0556122
0.0552185
0.0553012
0.0549527
0.0524248
0.0492504
0.046527
0.0436683
0.0435009
0.0434602
0.0332947
0.0240641
0.0223828
0.029756
0.0397508
0.0482214
0.0601056
0.0833217
0.107725
0.124828
0.133122
0.134534
0.12918
0.12107
0.113639
0.105609
0.0926557
0.0764417
0.0547558
0.0383625
0.0353622
0.0420612
0.060911
0.0688186
0.071688
0.0723492
0.0712821
0.0669014
0.0583871
0.0456577
0.0366494
0.0326882
0.0314454
0.0316788
0.0355647
0.0435982
0.0562499
0.0741351
0.0966164
0.113577
0.11988
0.122403
0.123063
0.122425
0.12081
0.123033
0.123546
0.120417
0.109784
0.0931123
0.077719
0.066209
0.0593147
0.0533758
0.0501768
0.0473393
0.0472747
0.0447979
0.0374921
0.0337369
0.0348019
0.0508961
0.139981
0.222168
0.233432
0.216405
0.200744
0.155736
0.059532
0.0375671
0.0321606
0.0293014
0.0279823
0.0275888
0.0274062
0.0269938
0.0250884
0.0221933
0.0209446
0.0209293
0.022727
0.0294733
0.0455344
0.0680673
0.0766188
0.0796571
0.080353
0.0796465
0.07629
0.0714387
0.0642119
0.0535851
0.0465844
0.044114
0.0431912
0.0424143
0.0414288
0.0394549
0.0348892
0.0269132
0.0183904
0.0125208
0.00945765
0.00804897
0.010234
0.0254148
0.171903
0.337446
0.342538
0.275677
0.259189
0.844186
0.871954
0.317051
0.151688
0.123616
0.123437
0.143001
0.160106
0.165853
0.168117
0.169977
0.173659
0.180498
0.186804
0.18991
0.193011
0.194045
0.193178
0.180555
0.152842
0.109024
0.082079
0.0632934
0.0496797
0.0401521
0.0350626
0.0331505
0.0346323
0.0424162
0.0590284
0.0733065
0.0802434
0.0820559
0.0807896
0.0733121
0.0639506
0.0575751
0.0538573
0.0521611
0.0516751
0.0516877
0.0518379
0.0518993
0.0517457
0.0507853
0.0474563
0.0410455
0.0400313
0.00995203
0.0178393
0.0186484
0.041676
0.0598563
0.0721901
0.078351
0.0808101
0.0799535
0.0756958
0.0712093
0.0691974
0.0658226
0.0609904
0.0570253
0.0520304
0.0479747
0.0426316
0.0377488
0.0380622
0.0456827
0.043899
0.0358835
0.0329289
0.0380965
0.0468689
0.0642136
0.0943213
0.131103
0.149518
0.157227
0.158809
0.154893
0.146336
0.134369
0.121074
0.106182
0.0894308
0.0669565
0.0497929
0.0459259
0.0515039
0.0608621
0.0646912
0.065906
0.0638346
0.0571992
0.0493721
0.0368485
0.0309017
0.0283389
0.0274651
0.0274085
0.0286767
0.0319955
0.0370784
0.0445893
0.0545657
0.0676107
0.0840864
0.0990962
0.105899
0.10829
0.108479
0.1045
0.0969357
0.0903942
0.0846034
0.0715908
0.058629
0.0524239
0.0506507
0.0502854
0.0477653
0.0450167
0.0431446
0.0421161
0.0460692
0.0473177
0.0435074
0.0399845
0.0454456
0.099773
0.232609
0.249662
0.231288
0.202836
0.158292
0.0802857
0.0430079
0.0350142
0.0320748
0.0297951
0.0288609
0.0286111
0.0282601
0.0266791
0.0236465
0.0215883
0.0213817
0.0231031
0.0305589
0.0514673
0.0741832
0.0815678
0.0838653
0.0843211
0.0838436
0.0816108
0.0787655
0.0757914
0.0706441
0.0605781
0.0461373
0.0393132
0.0368878
0.0382737
0.0409205
0.0419075
0.0417012
0.0404393
0.037014
0.0279917
0.0162839
0.00957213
0.00884653
0.0159667
0.174142
0.370957
0.375403
0.296396
0.373397
0.89981
0.646504
0.217822
0.13327
0.12367
0.131897
0.153367
0.160981
0.163117
0.162356
0.161343
0.166152
0.181689
0.190984
0.196111
0.20197
0.204352
0.204625
0.195911
0.170768
0.126027
0.0911768
0.0690219
0.0553527
0.0449279
0.0359703
0.0312634
0.0291788
0.0291705
0.0317972
0.0400116
0.0488907
0.0536551
0.0552124
0.0550231
0.0516943
0.0476412
0.0458909
0.0457651
0.045959
0.0463968
0.0466544
0.0466231
0.0460507
0.0434711
0.0371273
0.0307746
0.0299711
0.00466174
0.0138876
0.0152126
0.0291069
0.0504396
0.0660394
0.0750856
0.0802222
0.0822654
0.0820883
0.0809049
0.0783384
0.0727761
0.0667751
0.0617971
0.0586927
0.0558356
0.0491283
0.0391114
0.0348374
0.0402829
0.0443189
0.0389864
0.0385977
0.0452528
0.0577664
0.0796723
0.115167
0.146177
0.156869
0.158789
0.15827
0.153513
0.14376
0.130794
0.115516
0.0960718
0.0689071
0.0557081
0.0517707
0.0519825
0.0557937
0.0574443
0.0549459
0.0460443
0.0413706
0.0359124
0.0320929
0.0293396
0.0286454
0.0285675
0.0292632
0.0316225
0.0339266
0.0352719
0.0367461
0.038284
0.0401067
0.0430584
0.0483712
0.0579897
0.0759615
0.0892365
0.0953413
0.097265
0.0930229
0.0802713
0.0691225
0.0565621
0.0515153
0.0505037
0.0526727
0.055706
0.0515337
0.0486898
0.0475119
0.0514512
0.0644344
0.0853253
0.0913521
0.0797632
0.0874529
0.174313
0.268425
0.248631
0.208044
0.155077
0.0923724
0.0534747
0.0397293
0.0357319
0.0340161
0.0330859
0.0323179
0.0310937
0.0289429
0.0258089
0.0224755
0.021778
0.0228411
0.0290028
0.0488962
0.0742612
0.082639
0.0849121
0.0852799
0.084945
0.0829511
0.080506
0.0788335
0.0768113
0.0738805
0.0685263
0.0562925
0.038116
0.0307676
0.027774
0.0282538
0.0333562
0.0385416
0.0409058
0.0413032
0.0398657
0.0343956
0.0200062
0.0106689
0.01334
0.160031
0.38095
0.388066
0.313783
0.503314
0.894215
0.45546
0.17168
0.127259
0.124542
0.141395
0.154715
0.158361
0.1557
0.150307
0.150052
0.16063
0.185145
0.197902
0.204119
0.209752
0.214319
0.215424
0.20985
0.189307
0.139516
0.0968966
0.0709691
0.0563513
0.0475345
0.0403177
0.0329937
0.0288216
0.0270209
0.0266122
0.0274041
0.0299129
0.031528
0.0325459
0.0340765
0.0364086
0.0386783
0.0403382
0.0412816
0.0419633
0.042398
0.0424136
0.0420193
0.0401798
0.0342927
0.0274252
0.0223328
0.0219121
0.00234779
0.00892388
0.0104429
0.0148867
0.0243624
0.0373
0.0479171
0.060135
0.0706292
0.0768454
0.0788655
0.0786645
0.0779528
0.0753814
0.0717007
0.0680971
0.0649327
0.061528
0.0519492
0.0414505
0.0418336
0.0446174
0.0397347
0.040694
0.0487317
0.0611107
0.0844814
0.120686
0.142179
0.149374
0.151302
0.150675
0.143401
0.130846
0.114541
0.0938085
0.0699
0.0576595
0.0527683
0.0510089
0.050718
0.0505623
0.0434976
0.0379469
0.0352015
0.0337501
0.0323161
0.0314183
0.0310833
0.0326934
0.0345886
0.0355885
0.0360654
0.0362188
0.0363087
0.0365348
0.0369725
0.0377469
0.0387893
0.0402352
0.0424082
0.0462092
0.0547309
0.0719491
0.0854305
0.0920719
0.088406
0.0815
0.0703506
0.0649607
0.0641216
0.0713463
0.0810158
0.0818494
0.0754986
0.0667023
0.0642905
0.0697044
0.0953795
0.147696
0.158414
0.161126
0.224301
0.280364
0.222901
0.150072
0.102052
0.0636706
0.0462048
0.0406107
0.0394079
0.0390745
0.0374713
0.0353518
0.0326276
0.0288676
0.0242488
0.0220851
0.0222667
0.0260024
0.0410391
0.0700211
0.0815801
0.0845761
0.0850021
0.0844567
0.0813188
0.0775931
0.0766685
0.0764781
0.0763764
0.0745222
0.0709224
0.0639238
0.0493903
0.032291
0.026019
0.0235528
0.0227529
0.0249229
0.0314677
0.038591
0.0407708
0.0398191
0.0351871
0.0184574
0.0133552
0.0927727
0.375544
0.387112
0.340162
0.599154
0.866201
0.3463
0.148785
0.123714
0.12644
0.145932
0.153116
0.153347
0.146482
0.14105
0.142032
0.160532
0.197424
0.209918
0.212774
0.213569
0.218271
0.219291
0.215128
0.197595
0.15113
0.100889
0.07147
0.0562135
0.0475705
0.0418885
0.0370558
0.031379
0.0275452
0.0259221
0.0254327
0.025422
0.025662
0.0263309
0.0283539
0.0325985
0.0362318
0.0384999
0.0396564
0.0398895
0.0398177
0.0393208
0.0373984
0.0315299
0.0230157
0.0170851
0.0134211
0.0129012
0.00528232
0.00703225
0.0075015
0.00866991
0.0113427
0.0147325
0.0187708
0.0234488
0.0320032
0.042939
0.0519197
0.0587822
0.0613201
0.0636758
0.0702067
0.0796603
0.0817697
0.0780646
0.0644687
0.0474898
0.044981
0.0451698
0.0398126
0.0420001
0.0503107
0.0594202
0.073672
0.0981483
0.116041
0.123742
0.126338
0.124767
0.111062
0.0968651
0.0819284
0.0655106
0.0539144
0.0489767
0.0469693
0.0461778
0.0434116
0.038894
0.0361222
0.0347714
0.034178
0.0339517
0.0339858
0.0353524
0.036599
0.0370561
0.0371104
0.0369629
0.0370422
0.0374833
0.0384213
0.0401092
0.0419569
0.0437955
0.0445705
0.0445409
0.0430801
0.0421889
0.0419038
0.0431636
0.0468822
0.0587902
0.073683
0.0829654
0.0819644
0.0782248
0.0784757
0.0814248
0.0877157
0.0927518
0.0935298
0.0889271
0.0761001
0.072876
0.0873901
0.150995
0.210147
0.22088
0.252083
0.27437
0.177376
0.114322
0.0755917
0.0536784
0.0457031
0.043303
0.0429523
0.0421925
0.0401008
0.0372145
0.0334956
0.0284278
0.0229621
0.0217274
0.0235136
0.0319568
0.0549849
0.0773625
0.0831475
0.0842692
0.0840759
0.0810347
0.076317
0.0748773
0.0743122
0.073963
0.0734287
0.0728762
0.0709604
0.0655514
0.0554782
0.0426966
0.0306691
0.0240673
0.021648
0.0209237
0.0215581
0.0262043
0.0358084
0.0396232
0.0387747
0.0324291
0.015767
0.0354287
0.338769
0.385209
0.3832
0.665758
0.805471
0.279394
0.135479
0.121478
0.130432
0.146051
0.150394
0.149536
0.140033
0.134183
0.135961
0.161651
0.203764
0.214321
0.21575
0.215745
0.219539
0.220341
0.21706
0.20306
0.156818
0.102202
0.0696304
0.0529603
0.0455003
0.0413422
0.0381222
0.0350991
0.0309578
0.0273488
0.0256596
0.0251524
0.0251498
0.0255486
0.0273881
0.0318714
0.0354308
0.0375206
0.0382453
0.038259
0.0378523
0.0360632
0.0301872
0.0208129
0.014245
0.01049
0.00896557
0.00906785
0.0222532
0.0101748
0.0135221
0.0212641
0.0438425
0.0619336
0.0721364
0.0736305
0.0724898
0.0707055
0.0701398
0.0703051
0.0708161
0.0724698
0.078868
0.0874013
0.0879413
0.0833899
0.0697985
0.0506986
0.0464759
0.0451799
0.0396476
0.0434012
0.0510872
0.0574609
0.0665072
0.079439
0.0865321
0.0896541
0.0902691
0.0843771
0.0750208
0.0678256
0.0582151
0.0483086
0.0437758
0.0413947
0.0400372
0.0392326
0.037677
0.0363812
0.0357404
0.0353814
0.0359477
0.0369641
0.0376035
0.0377515
0.0376853
0.0376393
0.0377858
0.0383253
0.0401346
0.0435446
0.0485354
0.053436
0.0568705
0.0586791
0.0597221
0.0602047
0.0597668
0.0571635
0.0519591
0.0456233
0.0404301
0.0382132
0.0380132
0.0431671
0.0564933
0.0676441
0.0755227
0.0807751
0.0858517
0.0918976
0.0953758
0.0956054
0.0923691
0.0827313
0.0836883
0.118136
0.214799
0.255683
0.268909
0.273103
0.178228
0.0941925
0.0645286
0.051535
0.0460702
0.0444878
0.0439004
0.0430579
0.0410564
0.038107
0.0339616
0.0278086
0.0221085
0.0216321
0.0249394
0.0375991
0.0657402
0.0795101
0.0826985
0.08313
0.0812298
0.0780826
0.0758984
0.0746571
0.0739885
0.0731952
0.0720137
0.0696931
0.0667828
0.0640017
0.0561349
0.0464441
0.0393292
0.0316254
0.0247124
0.0215197
0.0204518
0.0206431
0.0243203
0.034722
0.0385184
0.0370968
0.0218674
0.0245274
0.293704
0.390544
0.432554
0.725572
0.747405
0.244076
0.129505
0.119893
0.133018
0.145516
0.148607
0.147429
0.139305
0.129837
0.129917
0.150667
0.201156
0.214317
0.215817
0.215678
0.21939
0.220165
0.217392
0.205151
0.160452
0.101476
0.0634373
0.0454261
0.0396238
0.0380412
0.0370257
0.0356311
0.0338669
0.0312858
0.0284087
0.0268514
0.0265073
0.0266805
0.028011
0.0320269
0.034918
0.0359347
0.0359119
0.0354322
0.0336279
0.0284257
0.0185714
0.0111918
0.0077763
0.00671963
0.00707607
0.0077661
0.0537183
0.052972
0.125476
0.168435
0.187449
0.191871
0.190695
0.188503
0.186164
0.181346
0.170569
0.154437
0.130707
0.110741
0.105071
0.102841
0.0936012
0.074816
0.0622737
0.0483582
0.047123
0.043843
0.0398214
0.0442792
0.0498643
0.0523559
0.0572449
0.0628165
0.0651241
0.0658305
0.0637293
0.0583944
0.053916
0.0503364
0.04432
0.04012
0.038375
0.037511
0.0371279
0.0369828
0.036885
0.0367045
0.0371532
0.0377168
0.0380607
0.0381409
0.0379808
0.0379499
0.0380439
0.038655
0.0403403
0.044336
0.0519374
0.0585206
0.0611222
0.0621589
0.0624612
0.062357
0.0621324
0.0626614
0.0638226
0.0642865
0.0635476
0.0618233
0.0576912
0.0486264
0.037943
0.0320559
0.029974
0.0314643
0.0403191
0.0562449
0.0712242
0.0802597
0.0879063
0.0931427
0.0938558
0.0889181
0.0839607
0.0915767
0.171402
0.269417
0.284068
0.278464
0.189846
0.0953566
0.0621178
0.0506003
0.0464564
0.0442489
0.0433434
0.0426229
0.0409552
0.0382325
0.0340904
0.0264028
0.0211698
0.0215397
0.0269092
0.0437243
0.0701041
0.0792597
0.0812426
0.0804268
0.0787391
0.0777278
0.0768526
0.0749895
0.0739878
0.0725866
0.0702014
0.0659602
0.0605298
0.0553196
0.0513895
0.046623
0.0410585
0.0381117
0.0341817
0.0278968
0.0227819
0.0205364
0.0208259
0.0251796
0.0352883
0.0373431
0.0300089
0.0233792
0.259798
0.405963
0.492924
0.780629
0.71402
0.22343
0.123568
0.117465
0.132763
0.144251
0.14687
0.14655
0.141054
0.129583
0.118733
0.131787
0.188676
0.210909
0.213642
0.214035
0.217502
0.218025
0.216148
0.205693
0.161852
0.0951827
0.0569808
0.0373302
0.0314705
0.0316394
0.032729
0.0338605
0.033882
0.0330259
0.0319632
0.0309836
0.0305467
0.0305605
0.0311648
0.0329281
0.0338732
0.0337675
0.0330891
0.0309793
0.0256235
0.0158604
0.00911978
0.00602787
0.0051456
0.00546381
0.0069501
0.00834197
0.0549998
0.194138
0.195195
0.182498
0.166216
0.153575
0.150152
0.147011
0.144734
0.14005
0.135759
0.133837
0.130416
0.122355
0.119163
0.112401
0.0909377
0.0703197
0.0571724
0.0454874
0.0483652
0.0413633
0.0403372
0.0452182
0.0480725
0.0489732
0.0513267
0.0532026
0.0536798
0.0524956
0.0489348
0.0454613
0.0436367
0.0415604
0.0383971
0.0370104
0.0365007
0.0363515
0.0364897
0.0368617
0.0373006
0.0378
0.0380781
0.0381706
0.0380721
0.0379398
0.0379158
0.0384105
0.0395597
0.0431711
0.0507027
0.0583193
0.0619615
0.0638144
0.0646203
0.0649182
0.0649092
0.0636035
0.0617105
0.0597327
0.0577588
0.0587535
0.0603585
0.0616838
0.0627186
0.0628683
0.0604373
0.0470369
0.0322867
0.025991
0.0242114
0.0254768
0.0341786
0.0486238
0.0619301
0.0760242
0.0856389
0.0873623
0.0835129
0.0834822
0.112462
0.246882
0.298356
0.294183
0.217662
0.104541
0.0640449
0.0512776
0.0455885
0.0411031
0.0391367
0.0391879
0.0391328
0.0375376
0.033688
0.0246295
0.0200518
0.0212363
0.0284731
0.0478142
0.0719456
0.0781823
0.0784088
0.077199
0.0766192
0.0765426
0.0764299
0.074602
0.0734765
0.0712599
0.0670858
0.0591669
0.0506706
0.0449312
0.0400472
0.04188
0.0404563
0.0387827
0.0373097
0.0357279
0.0316049
0.024589
0.0211391
0.0218056
0.0284556
0.0361523
0.0348483
0.0242005
0.228129
0.414033
0.563352
0.819748
0.672256
0.221601
0.121909
0.115313
0.131381
0.142688
0.145728
0.145725
0.142839
0.132522
0.119071
0.124013
0.164894
0.200466
0.208257
0.210101
0.212862
0.213738
0.21231
0.204275
0.161332
0.0905616
0.0504673
0.0299804
0.0232618
0.0233659
0.0250459
0.0286979
0.0314018
0.0325079
0.0326214
0.032529
0.0324734
0.0324783
0.0326433
0.0329212
0.0326645
0.0316929
0.0290363
0.0229036
0.0130932
0.00724551
0.00456922
0.00384351
0.00417586
0.00528816
0.00946688
0.0132797
0.156507
0.161489
0.134783
0.127869
0.130417
0.138176
0.147842
0.153589
0.159638
0.160589
0.159187
0.156341
0.152206
0.142744
0.121588
0.0961377
0.0712579
0.0616807
0.0465241
0.0454213
0.0473308
0.0402209
0.0400685
0.0446418
0.046009