/*--------------------------------*- C++ -*----------------------------------*\
  =========                 |
  \\      /  F ield         | OpenFOAM: The Open Source CFD Toolbox
   \\    /   O peration     | Website:  https://openfoam.org
    \\  /    A nd           | Version:  6
     \\/     M anipulation  |
\*---------------------------------------------------------------------------*/
FoamFile
{
    version     2.0;
    format      ascii;
    class       volScalarField;
    location    "0.15";
    object      k_0;
}
// * * * * * * * * * * * * * * * * * * * * * * * * * * * * * * * * * * * * * //

dimensions      [0 2 -2 0 0 0 0];

internalField   nonuniform List<scalar> 
12225
(
0.00132298
0.00108476
0.000531826
0.000221118
0.000151657
0.000160773
0.000196712
0.000208965
0.000215537
0.000234855
0.000325768
0.000714545
0.00121985
0.00146191
0.00151664
0.00149163
0.00126223
0.000705399
4.69397e-05
7.39545e-05
6.48944e-05
4.24771e-05
3.70992e-05
4.09015e-05
6.05433e-05
7.67072e-05
8.27487e-05
8.68897e-05
9.56644e-05
0.00012008
0.000175046
0.000305505
0.000548366
0.000726949
0.000786326
0.000782104
2.0364e-05
1.62334e-05
1.67289e-05
1.76423e-05
1.81054e-05
1.86169e-05
1.9858e-05
2.12794e-05
2.20181e-05
2.23942e-05
2.30083e-05
2.45288e-05
2.88498e-05
4.18429e-05
8.0944e-05
0.000125368
0.00016435
0.000197552
2.00225e-05
1.99995e-05
2.00421e-05
2.09689e-05
2.44021e-05
2.60187e-05
2.60296e-05
2.49338e-05
2.24063e-05
2.09533e-05
1.99075e-05
1.76959e-05
1.3644e-05
1.23549e-05
1.26753e-05
1.43573e-05
1.91858e-05
2.41356e-05
2.03204e-05
2.02544e-05
2.23266e-05
3.59446e-05
5.32626e-05
5.64277e-05
5.31934e-05
3.95982e-05
2.92117e-05
2.4203e-05
2.19443e-05
2.0723e-05
1.99005e-05
1.94656e-05
1.93505e-05
1.93931e-05
1.98474e-05
2.04467e-05
2.11468e-05
2.01993e-05
2.0333e-05
2.2317e-05
2.5495e-05
2.62823e-05
2.59987e-05
2.41723e-05
2.21136e-05
2.09829e-05
2.04765e-05
2.03391e-05
2.03074e-05
2.03047e-05
2.0317e-05
2.03738e-05
2.05344e-05
2.08996e-05
2.20925e-05
2.05537e-05
2.09125e-05
2.39891e-05
2.69664e-05
2.73783e-05
2.6572e-05
2.40878e-05
2.27222e-05
2.22818e-05
2.21837e-05
2.19242e-05
2.15413e-05
2.1305e-05
2.12171e-05
2.12099e-05
2.12516e-05
2.14652e-05
2.27687e-05
2.11143e-05
2.11474e-05
2.22844e-05
2.34258e-05
2.36468e-05
2.32583e-05
2.21442e-05
2.1784e-05
2.17328e-05
2.16506e-05
2.14185e-05
2.10937e-05
2.09011e-05
2.08241e-05
2.08169e-05
2.08636e-05
2.1306e-05
2.02616e-05
2.17013e-05
3.49782e-05
4.65182e-05
4.39295e-05
3.40722e-05
2.80274e-05
2.52067e-05
2.41982e-05
2.3223e-05
2.21893e-05
2.16949e-05
2.15538e-05
2.15462e-05
2.15771e-05
2.1651e-05
2.17866e-05
2.20789e-05
2.04969e-05
2.48049e-05
3.24737e-05
3.22736e-05
2.78619e-05
2.36572e-05
2.19757e-05
2.14224e-05
2.1297e-05
2.13032e-05
2.14614e-05
2.22262e-05
2.38211e-05
2.50586e-05
2.58197e-05
2.61686e-05
2.62537e-05
2.62024e-05
2.65009e-05
2.60079e-05
2.48522e-05
2.62535e-05
2.82984e-05
2.65266e-05
2.46907e-05
2.3946e-05
2.35197e-05
2.33992e-05
2.343e-05
2.37171e-05
2.49298e-05
2.62212e-05
2.68359e-05
2.69965e-05
2.69755e-05
2.67612e-05
2.50123e-05
2.38428e-05
2.16712e-05
2.14868e-05
2.21578e-05
2.58207e-05
2.94529e-05
3.06131e-05
3.06425e-05
2.98832e-05
2.77625e-05
2.61973e-05
2.50445e-05
2.40138e-05
2.31759e-05
2.23995e-05
2.1903e-05
2.15059e-05
2.24811e-05
2.36694e-05
2.2947e-05
2.14153e-05
2.13649e-05
2.2569e-05
2.67087e-05
2.92726e-05
2.9869e-05
2.96493e-05
2.76927e-05
2.46936e-05
2.31109e-05
2.2413e-05
2.21755e-05
2.21357e-05
2.21632e-05
2.23295e-05
2.85879e-05
3.44902e-05
2.85516e-05
2.18589e-05
2.08044e-05
2.10818e-05
2.2998e-05
2.49945e-05
2.56819e-05
2.57203e-05
2.53221e-05
2.3884e-05
2.27565e-05
2.2152e-05
2.18152e-05
2.16794e-05
2.16441e-05
2.1643e-05
2.11309e-05
2.35503e-05
2.27652e-05
2.25496e-05
2.32384e-05
2.48585e-05
2.55137e-05
2.55668e-05
2.52693e-05
2.39469e-05
2.27985e-05
2.23806e-05
2.23659e-05
2.26338e-05
2.39272e-05
2.48951e-05
2.48884e-05
2.3827e-05
2.13058e-05
2.10986e-05
2.09457e-05
2.15254e-05
2.24382e-05
2.26387e-05
2.2539e-05
2.18508e-05
2.11681e-05
2.09962e-05
2.10755e-05
2.18178e-05
2.60587e-05
3.43813e-05
3.74921e-05
3.76121e-05
3.61848e-05
3.09456e-05
2.24754e-05
2.47522e-05
2.42392e-05
2.23382e-05
2.13723e-05
2.09193e-05
2.07263e-05
2.06671e-05
2.06598e-05
2.06689e-05
2.07077e-05
2.08234e-05
2.10466e-05
2.12084e-05
2.12501e-05
2.12389e-05
2.1232e-05
2.12898e-05
2.04338e-05
2.09713e-05
2.14265e-05
2.15905e-05
2.15154e-05
2.11196e-05
2.07803e-05
2.07038e-05
2.07318e-05
2.0957e-05
2.1297e-05
2.14731e-05
2.15493e-05
2.1606e-05
2.17062e-05
2.19296e-05
2.25881e-05
2.47868e-05
2.08662e-05
2.09917e-05
2.06928e-05
2.05191e-05
2.04889e-05
2.05058e-05
2.06436e-05
2.12994e-05
2.25295e-05
2.32677e-05
2.35482e-05
2.35796e-05
2.34798e-05
2.28818e-05
2.20466e-05
2.16017e-05
2.14413e-05
2.14211e-05
2.02603e-05
2.04519e-05
2.04231e-05
2.0252e-05
2.02331e-05
2.04793e-05
2.22901e-05
2.44681e-05
2.48911e-05
2.48095e-05
2.43783e-05
2.40991e-05
2.39486e-05
2.37952e-05
2.36807e-05
2.36377e-05
2.36439e-05
2.37487e-05
2.05686e-05
2.17818e-05
2.20335e-05
2.13233e-05
2.06363e-05
2.03992e-05
2.03394e-05
2.03439e-05
2.04153e-05
2.06798e-05
2.14771e-05
2.42441e-05
2.93387e-05
3.2769e-05
3.39937e-05
3.40605e-05
3.37277e-05
3.19009e-05
2.13149e-05
2.19661e-05
2.16563e-05
2.09298e-05
2.07162e-05
2.07185e-05
2.09841e-05
2.21817e-05
2.61924e-05
2.95126e-05
3.07289e-05
3.08314e-05
3.04773e-05
2.89503e-05
2.70945e-05
2.58055e-05
2.4828e-05
2.41868e-05
2.17883e-05
2.12e-05
2.09647e-05
2.08489e-05
2.08946e-05
2.13643e-05
2.37062e-05
3.41448e-05
6.04747e-05
7.44822e-05
7.57674e-05
7.09152e-05
5.28646e-05
3.78313e-05
2.93324e-05
2.4899e-05
2.26674e-05
2.15825e-05
2.6083e-05
2.28767e-05
2.29829e-05
2.36861e-05
2.50087e-05
2.88371e-05
4.36873e-05
7.62832e-05
0.000100954
0.000114204
0.000114646
9.80876e-05
6.22991e-05
4.1036e-05
3.02712e-05
2.50472e-05
2.25063e-05
2.13053e-05
2.55307e-05
2.47011e-05
2.25099e-05
2.19209e-05
2.19197e-05
2.23288e-05
2.39041e-05
2.78332e-05
3.62615e-05
6.08486e-05
9.00979e-05
9.83872e-05
9.37717e-05
6.91962e-05
4.57438e-05
3.3481e-05
2.71208e-05
2.38767e-05
3.02948e-05
3.21862e-05
2.70905e-05
2.36634e-05
2.34133e-05
2.51375e-05
3.77428e-05
5.66884e-05
6.03442e-05
5.91881e-05
5.09261e-05
3.95436e-05
3.28266e-05
2.92955e-05
2.73623e-05
2.59142e-05
2.45502e-05
2.35638e-05
2.01416e-05
2.03247e-05
2.03389e-05
2.03902e-05
2.05157e-05
2.06877e-05
2.07276e-05
2.07166e-05
2.06872e-05
2.05916e-05
2.04627e-05
2.03286e-05
2.00473e-05
1.95187e-05
1.89148e-05
1.84622e-05
1.82767e-05
1.82445e-05
2.00316e-05
1.84394e-05
1.47275e-05
1.55846e-05
1.67108e-05
1.6511e-05
1.47562e-05
1.34585e-05
1.32213e-05
1.33757e-05
1.43679e-05
1.76309e-05
2.1616e-05
2.52079e-05
2.78576e-05
2.91349e-05
2.93259e-05
2.88636e-05
2.15273e-05
3.12251e-05
5.64439e-05
6.72175e-05
6.47632e-05
5.30958e-05
3.85902e-05
3.37156e-05
3.39621e-05
4.01795e-05
6.7849e-05
0.000139831
0.000202633
0.000243036
0.000258994
0.000259524
0.000253005
0.000227817
0.000182031
0.00114569
0.00130305
0.00108196
0.000621408
0.000314532
0.000155935
0.00010976
0.000115738
0.000203191
0.000580412
0.000954433
0.00111281
0.00114314
0.00112094
0.00096107
0.000636503
0.000416095
0.00466063
0.011254
0.0178207
0.0304976
0.0354945
0.0307254
0.0225078
0.0207565
0.0211078
0.0246206
0.0314458
0.033512
0.0330479
0.0306342
0.0294021
0.0289298
0.02869
0.0280315
0.0268686
0.0254595
0.0243969
0.0239925
0.0238519
0.0238274
0.0238658
0.0240462
0.0245616
0.0252986
0.0260137
0.0267473
0.0274832
0.0285629
0.0297083
0.0303973
0.0306101
0.0304876
0.0297321
0.0288937
0.0285541
0.0285648
0.0289371
0.0297796
0.0307989
0.0317115
0.0326748
0.0339389
0.0355853
0.036764
0.0370495
0.0369729
0.0364472
0.035537
0.0344965
0.0325749
0.0291941
0.0247933
0.0216893
0.0204025
0.0199024
0.0197968
0.019815
0.019881
0.019917
0.0199929
0.0202188
0.0208643
0.021369
0.0217475
0.0223895
0.023247
0.0245975
0.0272073
0.0345056
0.0443681
0.0490472
0.055612
0.0682272
0.0759182
0.0831342
0.104909
0.129419
0.132387
0.121422
0.0845324
0.0638999
0.0603147
0.0615261
0.0795791
0.119039
0.175804
0.305584
0.282149
0.150305
0.113393
0.106647
0.105381
0.105206
0.104765
0.102128
0.0975298
0.0901018
0.08164
0.0717806
0.0632329
0.0543489
0.0489833
0.0452803
0.0437228
0.0430804
0.0422521
0.0419416
0.0416858
0.0416581
0.0417139
0.0418467
0.0419484
0.0420141
0.0420674
0.0421189
0.0421788
0.0422827
0.0423977
0.0425947
0.0428589
0.0437636
0.0505271
0.0467689
0.0480206
0.0532131
0.0574492
0.0599349
0.0675479
0.0932226
0.222713
0.591056
0.899106
0.869327
0.35726
0.197983
0.148196
0.121774
0.105944
0.0962901
0.0927522
0.0922558
0.0922123
0.0914288
0.0905024
0.0897194
0.0891474
0.0879959
0.0869401
0.0861137
0.0843227
0.0816998
0.0791192
0.0762531
0.0746495
0.0736042
0.072924
0.0721625
0.0714902
0.0710155
0.0707769
0.0707604
0.0709506
0.0714397
0.0717725
0.0719502
0.0720511
0.0721222
0.0722154
0.07214
0.0718786
0.0718856
0.0714586
0.0713587
0.0707928
0.0708407
0.0677931
0.01293
0.024542
0.0274727
0.0265681
0.02186
0.0204696
0.0204633
0.0246745
0.0286621
0.0297927
0.0301465
0.0297363
0.0285455
0.0282243
0.028748
0.0305279
0.0311472
0.0311899
0.0299302
0.0268109
0.0237148
0.0225232
0.0222216
0.022267
0.0225333
0.0230758
0.0239704
0.0254137
0.0268725
0.0278939
0.0282189
0.0277457
0.0266364
0.0254942
0.0250066
0.0250549
0.0252167
0.0253904
0.0256328
0.0259234
0.0260563
0.0260284
0.0258597
0.0254631
0.0250374
0.0248196
0.0247672
0.0247891
0.0247355
0.0244445
0.0241315
0.0238126
0.0233835
0.0226379
0.0217484
0.0213009
0.0214223
0.0224894
0.0248143
0.0266425
0.0276815
0.028676
0.0294613
0.0298988
0.029589
0.0287015
0.0275938
0.0264708
0.0259923
0.02674
0.0307762
0.0336378
0.0336482
0.0333308
0.0337312
0.0362982
0.0457415
0.0540771
0.0598429
0.072049
0.0866112
0.0894514
0.0797341
0.0515878
0.0387834
0.036478
0.0386348
0.0498138
0.0956011
0.315945
0.334726
0.184732
0.12178
0.103297
0.0961828
0.0902357
0.0831092
0.0756264
0.0676372
0.0599092
0.0522546
0.0455924
0.0399713
0.0359163
0.0322889
0.0299344
0.0282024
0.0274365
0.0270924
0.0269231
0.0268303
0.0267818
0.0267634
0.0268722
0.0269749
0.0272662
0.0274714
0.0275239
0.027427
0.0270898
0.0264543
0.025622
0.024621
0.0236566
0.0229444
0.0237634
0.028447
0.0425529
0.0636378
0.0634774
0.0614014
0.0619749
0.0712764
0.186386
1.01585
1.20167
0.594475
0.202771
0.132265
0.11677
0.112143
0.110665
0.109952
0.108479
0.107353
0.105739
0.103082
0.100201
0.0961578
0.0929241
0.0911403
0.0905088
0.0938817
0.097585
0.0993916
0.100529
0.0998803
0.0965597
0.0919712
0.0865543
0.0800832
0.074481
0.0708267
0.0683439
0.0665017
0.064959
0.0635675
0.0625076
0.0616246
0.0609411
0.0602291
0.059555
0.0581363
0.0558387
0.0542344
0.0518389
0.0507741
0.0484767
0.0480845
0.0517272
0.0160658
0.0241014
0.0242672
0.0200506
0.0189523
0.0189291
0.0200116
0.0227635
0.0254522
0.0266089
0.0281276
0.0303294
0.0332476
0.0371287
0.0396083
0.0402443
0.0399382
0.0381758
0.0350048
0.0308825
0.0268241
0.0241915
0.0234326
0.0235631
0.0237127
0.0240821
0.0261667
0.0303595
0.0353741
0.0398241
0.0428904
0.0438519
0.0433389
0.0421362
0.0403692
0.0378076
0.0346774
0.0320405
0.0301334
0.0287751
0.0275111
0.0257631
0.0225661
0.02143
0.0214172
0.0223599
0.024318
0.0258616
0.0269697
0.0288464
0.0312188
0.0339267
0.0372471
0.0402635
0.0424043
0.0439001
0.0463285
0.0499572
0.0542534
0.0576903
0.061782
0.0683787
0.0756313
0.0796336
0.0805997
0.0792227
0.0760049
0.0712648
0.067905
0.0680477
0.0741091
0.0809475
0.0812346
0.0787717
0.0779899
0.0789752
0.079325
0.0815974
0.0921241
0.096131
0.0915034
0.0672632
0.0462335
0.041723
0.0423505
0.0448866
0.0521807
0.0804119
0.216295
0.330269
0.188703
0.0955
0.0752421
0.0669244
0.0577454
0.0491209
0.042748
0.0375944
0.0340207
0.0302863
0.0278664
0.0250951
0.0227238
0.0206576
0.0198931
0.0196504
0.020085
0.0225217
0.0240045
0.0246422
0.024834
0.0247854
0.0245199
0.0241811
0.0235096
0.0232843
0.023493
0.0241773
0.0252524
0.0266998
0.027998
0.0286091
0.0289887
0.028759
0.0278059
0.029274
0.0425567
0.0943179
0.138051
0.130206
0.0989587
0.0769509
0.116681
0.735275
1.16163
0.787932
0.253221
0.133113
0.114809
0.1113
0.110319
0.110348
0.11274
0.115242
0.116395
0.116528
0.11348
0.110284
0.101815
0.0914798
0.0820842
0.0737606
0.0699722
0.0707704
0.078995
0.092832
0.104087
0.109159
0.110638
0.109642
0.106176
0.0995022
0.0902697
0.0805706
0.0721718
0.0659589
0.0614001
0.0579366
0.054896
0.0526224
0.0503077
0.047347
0.0422385
0.0364105
0.0306963
0.0272168
0.0236152
0.021755
0.0198279
0.0153209
0.0155601
0.0228637
0.0237388
0.0217779
0.0213833
0.0214084
0.0212132
0.0212018
0.0218646
0.0256749
0.0292041
0.0316503
0.034429
0.0371992
0.0386942
0.0389966
0.0386689
0.0369416
0.0333379
0.0285383
0.0243637
0.0221041
0.0216568
0.0235428
0.0238427
0.0247159
0.0291006
0.0375244
0.0457597
0.052232
0.0557663
0.0576994
0.0590351
0.0602195
0.0614288
0.0612232
0.0585973
0.0505851
0.0416701
0.0366029
0.0337599
0.0264094
0.0237016
0.0233374
0.0247508
0.0283286
0.0338533
0.0412759
0.0513014
0.0599842
0.0637347
0.0650404
0.0650645
0.0620229
0.0589027
0.0581475
0.0581008
0.0593101
0.0646247
0.0766767
0.0949982
0.11047
0.116992
0.1197
0.120957
0.121549
0.121252
0.119752
0.118279
0.118433
0.120477
0.121837
0.120905
0.118662
0.117283
0.116243
0.114233
0.109965
0.102066
0.0833121
0.0604968
0.0473155
0.0456568
0.0496495
0.0646515
0.11212
0.153471
0.189261
0.259023
0.229283
0.085182
0.0536602
0.0443664
0.0382202
0.0346926
0.0317562
0.0297914
0.0278915
0.0265856
0.0247791
0.0226495
0.0209199
0.0204929
0.0204713
0.021288
0.0237657
0.028023
0.0324064
0.0344361
0.0352725
0.0350582
0.0325911
0.0315111
0.0301898
0.0259924
0.0231729
0.0208184
0.0191564
0.0179608
0.0174289
0.0179208
0.0203279
0.0239409
0.027311
0.0285819
0.0339936
0.0501258
0.138317
0.23639
0.229057
0.169939
0.121043
0.323628
1.02988
0.976375
0.352557
0.153812
0.119308
0.116225
0.120253
0.135051
0.150207
0.157414
0.161111
0.162605
0.162991
0.161179
0.157443
0.147292
0.12867
0.103291
0.0804252
0.0662152
0.0591711
0.0533664
0.0516379
0.0607381
0.0801272
0.0976841
0.106705
0.109733
0.10957
0.106433
0.0998143
0.0907933
0.0809833
0.0723775
0.0660771
0.062607
0.0608857
0.0602351
0.0601499
0.0602611
0.0607016
0.061137
0.0613311
0.0613372
0.0610141
0.0591882
0.0576144
0.0137719
0.0217409
0.0256904
0.030812
0.0338565
0.0364095
0.0375006
0.0386125
0.0425238
0.0491001
0.0523496
0.0535506
0.0529204
0.0473749
0.0434138
0.042545
0.0420098
0.0411398
0.0380009
0.0340332
0.0271645
0.0218974
0.0206845
0.0229903
0.0253269
0.0297157
0.0388348
0.0483393
0.0559043
0.0638647
0.0719851
0.0781632
0.0816127
0.0816383
0.0801337
0.0771923
0.0735425
0.0742048
0.0730018
0.0579719
0.0369892
0.0289628
0.0278174
0.0306669
0.0396754
0.0574517
0.0692716
0.0737214
0.074948
0.0749092
0.0719559
0.065615
0.0587857
0.0518375
0.0477916
0.046803
0.0479527
0.0550981
0.0698734
0.0912898
0.111896
0.120462
0.124002
0.125685
0.126718
0.127651
0.128741
0.129136
0.129063
0.128367
0.126712
0.124292
0.118978
0.110292
0.101211
0.0912522
0.0812693
0.0729245
0.0613857
0.0494058
0.040399
0.038582
0.0419397
0.062471
0.136464
0.203329
0.212978
0.210573
0.236512
0.106938
0.0492701
0.0366039
0.0318558
0.0291616
0.028114
0.027536
0.0270548
0.0260892
0.0243588
0.0214763
0.0205167
0.0205142
0.0217281
0.0249836
0.0325039
0.0458321
0.0588165
0.0638654
0.0655856
0.0653501
0.0608636
0.0540434
0.0486377
0.0444183
0.0416133
0.0386302
0.0337981
0.0286569
0.0220189
0.017241
0.0143353
0.0126014
0.0118939
0.0125636
0.0143092
0.0229658
0.0435041
0.155195
0.297878
0.300363
0.239215
0.18048
0.658199
1.00033
0.536211
0.203165
0.128068
0.119844
0.124452
0.147396
0.162089
0.168023
0.170925
0.173609
0.177205
0.180161
0.181816
0.182607
0.181478
0.174515
0.1535
0.116497
0.0822618
0.0657212
0.0531427
0.0454423
0.0407423
0.0408434
0.0488692
0.0682521
0.0865652
0.096906
0.100605
0.10028
0.0953252
0.0848384
0.0747776
0.0667157
0.0607555
0.0570095
0.0551746
0.0546294
0.0546106
0.0547679
0.0548992
0.0548514
0.0544168
0.0527011
0.0471878
0.0466977
0.01219
0.0201999
0.0248897
0.0443686
0.0598799
0.0655167
0.0664625
0.0665052
0.0647618
0.0616888
0.05751
0.0556318
0.0552251
0.0553017
0.0549596
0.0524475
0.0492763
0.0465639
0.0437177
0.0435374
0.0434585
0.0332136
0.0240263
0.0223781
0.0297554
0.039734
0.0481927
0.0600527
0.0831872
0.107618
0.124792
0.133165
0.134658
0.129363
0.121306
0.113902
0.105867
0.0929002
0.0766994
0.0550483
0.0384966
0.0354244
0.041969
0.0608446
0.0688124
0.0717044
0.0723798
0.0713433
0.0670125
0.0585717
0.0458997
0.0367374
0.0326971
0.0314092
0.0315851
0.0352954
0.0431456
0.0556231
0.0733758
0.095886
0.113342
0.119864
0.122496
0.123212
0.122661
0.121079
0.123292
0.123816
0.12084
0.110422
0.0938019
0.0783076
0.0665889
0.0595675
0.053524
0.0502597
0.0473826
0.0472639
0.0447254
0.0373883
0.0336914
0.0348029
0.0512518
0.141559
0.223003
0.233595
0.216267
0.200364
0.153709
0.0590097
0.0374802
0.0321715
0.0293119
0.0279801
0.0275883
0.027411
0.0270249
0.0251317
0.022239
0.0209098
0.0208667
0.0225654
0.0290915
0.0446893
0.0675314
0.0763942
0.0795697
0.0803183
0.0797096
0.0764413
0.0715999
0.0644513
0.0538739
0.0467607
0.0442639
0.0433027
0.0424911
0.0414714
0.039412
0.0347013
0.0266223
0.0181031
0.0123821
0.00939514
0.00803116
0.0102921
0.0259126
0.173699
0.33768
0.342449
0.275006
0.260399
0.847384
0.866877
0.312934
0.150875
0.123464
0.12337
0.142715
0.159864
0.16572
0.168008
0.169822
0.173398
0.180141
0.186476
0.189568
0.192639
0.193671
0.192791
0.180185
0.15242
0.108686
0.081827
0.0630665
0.0494716
0.0400505
0.0350199
0.0331973
0.0348203
0.042975
0.0597734
0.0738713
0.0805896
0.08228
0.0808711
0.0731341
0.063819
0.0575077
0.0538446
0.052186
0.0517202
0.051736
0.0518866
0.0519408
0.051774
0.0507628
0.0472929
0.0409535
0.0399849
0.00993782
0.0178355
0.0186368
0.0416476
0.059862
0.0722164
0.0783909
0.0808582
0.0800086
0.0757564
0.0712662
0.0692459
0.0658513
0.0610089
0.0570429
0.0520361
0.047961
0.0426151
0.0377695
0.0381496
0.0457804
0.0439125
0.0358632
0.032928
0.038099
0.0468371
0.0641124
0.0941119
0.130949
0.149458
0.157214
0.158826
0.154961
0.146459
0.134538
0.121275
0.106405
0.0896543
0.0671755
0.0499144
0.0459962
0.0514498
0.0607968
0.0646358
0.0658607
0.0637767
0.0571334
0.0494575
0.0369623
0.0309364
0.0283395
0.0274381
0.0273644
0.02856
0.0317853
0.0367655
0.0441943
0.0541517
0.0672578
0.0839175
0.099239
0.106149
0.108597
0.108805
0.104881
0.09727
0.0908282
0.0851656
0.0721667
0.058977
0.0525167
0.0506465
0.050236
0.0477248
0.0449739
0.0431017
0.0420521
0.0459418
0.0470327
0.0432117
0.0397812
0.045414
0.100877
0.23355
0.249783
0.231111
0.202308
0.15678
0.0793544
0.0428803
0.0350462
0.0321214
0.0298548
0.0289216
0.0286809
0.0283186
0.0267187
0.0236973
0.0215637
0.0213341
0.0229776
0.0302093
0.0506772
0.0738414
0.0814379
0.083844
0.084333
0.0839189
0.0817606
0.0789184
0.0759395
0.0708196
0.060816
0.0463901
0.0395473
0.0371481
0.0385262
0.0410975
0.0420202
0.041751
0.040441
0.0368628
0.0276158
0.0159444
0.00941891
0.00881308
0.016135
0.176318
0.371571
0.375378
0.295779
0.37643
0.900257
0.639982
0.215589
0.132855
0.123531
0.131814
0.153132
0.160815
0.162993
0.162255
0.161178
0.165746
0.181131
0.190561
0.195663
0.201509
0.203863
0.20413
0.195444
0.170347
0.125762
0.0910397
0.0689166
0.0552434
0.0447224
0.0358267
0.0311998
0.029175
0.029231
0.0320337
0.0405054
0.0493755
0.0540556
0.055548
0.0552845
0.0517561
0.0476983
0.045963
0.0458449
0.0460368
0.0464685
0.0467143
0.0466746
0.0460682
0.0433674
0.0369478
0.0307111
0.0299522
0.00465085
0.0138748
0.0151992
0.029074
0.0503861
0.0660248
0.0750924
0.080244
0.0822828
0.0821041
0.0809154
0.0783416
0.0727714
0.0667611
0.0617695
0.0586785
0.0558158
0.0490794
0.0390782
0.0348677
0.0403872
0.0443617
0.0389794
0.0385899
0.045225
0.0577056
0.0795175
0.114921
0.146066
0.156832
0.158775
0.158281
0.153576
0.143868
0.130935
0.115674
0.096229
0.069007
0.055775
0.0518033
0.0519675
0.0557279
0.0573681
0.0548363
0.0459233
0.0412694
0.0359105
0.0321382
0.0293505
0.0286408
0.0285556
0.0292152
0.0315362
0.0338451
0.0351928
0.0366635
0.0382135
0.0400383
0.042983
0.0483161
0.0580199
0.0761739
0.0895266
0.0955809
0.0974911
0.0932345
0.0803749
0.0691856
0.0565914
0.051449
0.0504017
0.0525038
0.0554327
0.0512606
0.0484783
0.0473443
0.0513181
0.0644289
0.085169
0.0905619
0.0791305
0.0872758
0.175304
0.26877
0.248401
0.207202
0.153694
0.0913736
0.053195
0.0397616
0.0358166
0.03416
0.0332483
0.0324567
0.0311909
0.0290059
0.0258553
0.0224628
0.021732
0.0227512
0.0287726
0.0483269
0.0739697
0.0825333
0.0848992
0.0852974
0.0850119
0.083109
0.0806695
0.0789675
0.0769418
0.0740168
0.0686896
0.0564685
0.0382698
0.0308997
0.0278839
0.0284987
0.0336747
0.0388011
0.0410284
0.0413434
0.0398305
0.0341184
0.019555
0.0105242
0.0133302
0.163204
0.381946
0.388113
0.313444
0.506784
0.893934
0.449934
0.170286
0.126986
0.124425
0.141307
0.154513
0.158201
0.155678
0.150172
0.149822
0.160023
0.184393
0.197346
0.203619
0.209312
0.213904
0.215056
0.209545
0.189014
0.139183
0.0967311
0.070895
0.056288
0.0474558
0.0401421
0.0328269
0.0287459
0.0269956
0.0266281
0.0274964
0.0300792
0.0316938
0.0327192
0.0342593
0.0365642
0.0387928
0.0404181
0.0413444
0.0420269
0.0424522
0.042462
0.042047
0.0401411
0.034123
0.0273004
0.0223175
0.0219379
0.002348
0.00890613
0.0104214
0.0148572
0.0242895
0.0371986
0.0478297
0.0600884
0.0706354
0.0768626
0.0788703
0.078664
0.0779386
0.0753362
0.071665
0.0680228
0.0648231
0.0613929
0.0518186
0.0414066
0.0418669
0.0446531
0.0397309
0.0406792
0.0486932
0.0610426
0.0843135
0.120441
0.142059
0.149303
0.151252
0.150653
0.143424
0.130875
0.114545
0.0938479
0.0699514
0.0576823
0.0527764
0.0509981
0.0506794
0.0504751
0.0434387
0.0378982
0.0351683
0.0337383
0.03234
0.0314452
0.0311055
0.0327012
0.0346037
0.0356006
0.0360752
0.0362206
0.0363008
0.0365081
0.0369139
0.0376506
0.0386588
0.0400813
0.0422442
0.0461442
0.0549063
0.072449
0.0859553
0.0924316
0.0885697
0.0814832
0.0701209
0.0646698
0.0638
0.0710453
0.0808196
0.0815197
0.0750429
0.0663126
0.0641124
0.0697078
0.0957739
0.147896
0.15772
0.160802
0.224846
0.28031
0.22203
0.148951
0.101086
0.0632756
0.0461673
0.0406914
0.0395612
0.0392216
0.037596
0.0354551
0.03271
0.0289293
0.0242681
0.0220325
0.0221908
0.0258377
0.0405891
0.069708
0.081468
0.0845591
0.0850174
0.084537
0.0815593
0.0777473
0.0767727
0.0765753
0.0764831
0.0746586
0.0710948
0.0641092
0.0494467
0.0322618
0.0260236
0.0235707
0.0228146
0.02514
0.0318207
0.0388003
0.0408413
0.0398235
0.0349636
0.0180372
0.0132929
0.0968585
0.377364
0.387167
0.340411
0.602375
0.864114
0.342424
0.147814
0.123434
0.126379
0.145778
0.152939
0.153252
0.146501
0.140915
0.141733
0.159618
0.196652
0.209555
0.212493
0.213246
0.218011
0.219091
0.214949
0.197352
0.150795
0.100731
0.071415
0.0561857
0.0475261
0.0418228
0.0369136
0.0311998
0.027454
0.0258873
0.0254255
0.0254298
0.025689
0.0263827
0.0284818
0.0327374
0.0363406
0.0385763
0.039704
0.0399238
0.0398478
0.0393334
0.0373564
0.031351
0.0228701
0.0170049
0.0134263
0.0129425
0.00528377
0.00702274
0.00748952
0.00865522
0.0113221
0.0147024
0.0187505
0.0234676
0.032059
0.0430117
0.0519876
0.0588214
0.0613394
0.063737
0.0703581
0.0797172
0.0817306
0.0779199
0.0642398
0.0473854
0.044982
0.0451879
0.0398078
0.0419786
0.0502652
0.0593508
0.0735225
0.0979291
0.115857
0.123574
0.126178
0.124637
0.110956
0.0967473
0.0818867
0.0655028
0.0538833
0.0489149
0.0468831
0.0460795
0.0433368
0.0388483
0.0361111
0.0347731
0.0341857
0.0339621
0.0340321
0.0353928
0.0366426
0.0370974
0.0371473
0.0369816
0.037044
0.0374523
0.0383396
0.0399548
0.0417052
0.043444
0.0441877
0.0441158
0.0426966
0.0419076
0.0416659
0.0430049
0.0470484
0.0594817
0.0744815
0.0835369
0.0821924
0.0783225
0.0785054
0.0814687
0.0877731
0.0927825
0.0934761
0.0886478
0.0757141
0.0727837
0.0877833
0.151977
0.210447
0.220772
0.252222
0.274064
0.176616
0.113573
0.0750969
0.0535357
0.0457155
0.0433756
0.0430156
0.0422514
0.0401635
0.0372773
0.033555
0.0284794
0.0229352
0.0216561
0.023398
0.0317316
0.054613
0.077168
0.0830806
0.0842534
0.0841071
0.081205
0.0764196
0.0749111
0.074339
0.0740098
0.0735283
0.0730199
0.0711532
0.0657689
0.0556656
0.0426381
0.0304978
0.023981
0.0216119
0.0209117
0.0216242
0.0265477
0.036116
0.0397062
0.0387762
0.0320751
0.0155904
0.0364979
0.341457
0.385357
0.38408
0.669001
0.802045
0.276336
0.134783
0.121254
0.130493
0.145933
0.150273
0.149497
0.140118
0.134078
0.13566
0.160785
0.203379
0.214214
0.215641
0.215594
0.219413
0.220242
0.216956
0.202846
0.156447
0.102045
0.0696482
0.0530627
0.0455661
0.0413434
0.038081
0.0349998
0.0307831
0.0272389
0.025609
0.0251332
0.0251401
0.0255635
0.0274846
0.0320013
0.0355298
0.037588
0.0382909
0.0382986
0.0378754
0.0360355
0.0300098
0.0206678
0.0141743
0.0104757
0.00899211
0.00910964
0.0222905
0.0101833
0.013545
0.0213236
0.0439537
0.0620203
0.0721963
0.0736961
0.0725529
0.0707877
0.0702355
0.0704012
0.0709163
0.0726009
0.0791266
0.0875115
0.087933
0.0832605
0.0695607
0.0505685
0.0464653
0.0451877
0.0396419
0.0433712
0.0510435
0.0574011
0.0663896
0.0792955
0.0863938
0.0895137
0.0901286
0.0842444
0.074876
0.0676983
0.0581624
0.048248
0.0437133
0.0413271
0.0399619
0.0391637
0.0376445
0.0363823
0.0357599
0.0354052
0.0359926
0.0370111
0.0376451
0.0377864
0.0377082
0.0376557
0.0377883
0.0382885
0.0400317
0.043343
0.0482104
0.0530688
0.056567
0.0584445
0.0594946
0.0599826
0.0594322
0.0566517
0.051383
0.0450262
0.0400362
0.0379951
0.0379921
0.0437241
0.0574259
0.0684635
0.0759656
0.0810657
0.0860668
0.0920665
0.0954617
0.095629
0.0922432
0.0824913
0.0837322
0.119392
0.215905
0.255837
0.268944
0.272779
0.177444
0.0937087
0.0642809
0.0514832
0.046084
0.0444916
0.0438968
0.0430566
0.0410631
0.0381245
0.0339896
0.0278229
0.0220522
0.0215545
0.024815
0.0374076
0.0654618
0.0793699
0.0826276
0.0830964
0.0812498
0.0781589
0.0759345
0.0746601
0.0739834
0.0732228
0.0721126
0.0699078
0.0670841
0.0643274
0.0563778
0.046546
0.0392782
0.0313404
0.0244779
0.0214074
0.0204107
0.0206557
0.0245747
0.0350081
0.0385875
0.0370674
0.0215654
0.0246427
0.296183
0.390908
0.434031
0.728761
0.743484
0.241665
0.128955
0.119682
0.133035
0.145406
0.14851
0.1474
0.139413
0.1298
0.12974
0.150142
0.200942
0.214283
0.215756
0.215577
0.219319
0.220121
0.21732
0.204966
0.159964
0.101311
0.0634732
0.0456205
0.0398334
0.0381755
0.0370777
0.0356197
0.0338135
0.0311488
0.028279
0.0267725
0.0264601
0.0266516
0.0280583
0.0321356
0.0349936
0.0359855
0.0359586
0.0354672
0.0336267
0.0282998
0.0184356
0.0111221
0.00776605
0.0067423
0.00711168
0.00780633
0.0537841
0.0530543
0.125499
0.168433
0.187411
0.191773
0.190583
0.1884
0.186066
0.181246
0.17045
0.154301
0.130462
0.110615
0.105109
0.1028
0.0932078
0.0745055
0.0620904
0.0482672
0.0471316
0.0438452
0.0398101
0.0442445
0.0498383
0.0523279
0.0571745
0.0627395
0.0650439
0.0657481
0.0636424
0.0582967
0.0538028
0.0502454
0.044273
0.0400712
0.0383311
0.0374711
0.0370933
0.0369589
0.0368829
0.0367179
0.037191
0.0377545
0.0380862
0.0381643
0.03799
0.0379569
0.0380419
0.0386343
0.0402832
0.0441825
0.0516129
0.0583397
0.0610143
0.0620896
0.0624098
0.0623301
0.0621345
0.0627312
0.0638579
0.0643168
0.0635292
0.0617425
0.0572072
0.047859
0.0373034
0.0317899
0.0299234
0.0317736
0.0412272
0.0572384
0.0719725
0.0807718
0.0882914
0.0933472
0.0939248
0.0888137
0.0839346
0.0919679
0.173472
0.270149
0.284167
0.278221
0.188961
0.0948792
0.0619247
0.0505339
0.0464369
0.0442037
0.0432808
0.0425732
0.0409294
0.0382198
0.0340853
0.0263321
0.0210908
0.0214546
0.0268113
0.04358
0.0699479
0.0791356
0.0811431
0.0803494
0.0787251
0.07774
0.0768647
0.0749928
0.0739814
0.072632
0.070359
0.0662916
0.061002
0.0558297
0.0518032
0.0467747
0.0411025
0.0380724
0.0339392
0.0275339
0.0225801
0.0204634
0.0208236
0.0254644
0.0354912
0.0373797
0.0296807
0.0233342
0.261882
0.406484
0.495071
0.783315
0.709411
0.220898
0.123064
0.117249
0.132768
0.144161
0.14679
0.146511
0.141131
0.129601
0.118671
0.131674
0.188728
0.211024
0.213684
0.21404
0.217564
0.21812
0.216202
0.205534
0.161267
0.0949191
0.0569373
0.0374926
0.0317462
0.0318961
0.0329373
0.0339632
0.0339091
0.0329988
0.0319101
0.0309085
0.0304749
0.0304978
0.0311524
0.0329788
0.0339095
0.0338014
0.0331147
0.0309792
0.0255323
0.0157715
0.00907829
0.00602393
0.0051693
0.00549869
0.00700521
0.00840751
0.0550687
0.194075
0.195083
0.1824
0.166082
0.153444
0.150028
0.146909
0.144642
0.139955
0.135696
0.133783
0.130279
0.122249
0.119052
0.112128
0.0903453
0.0700076
0.0570063
0.0454474
0.0483998
0.0413631
0.0403215
0.0451863
0.0480661
0.0489747
0.0513108
0.0531831
0.053659
0.0524787
0.0489101
0.0454108
0.0435755
0.041519
0.0383714
0.036988
0.0364825
0.0363354
0.0364783
0.0368536
0.0373073
0.0378132
0.0380883
0.03818
0.0380778
0.0379314
0.0379038
0.0384009
0.0395362
0.0431168
0.0505807
0.0582432
0.0619123
0.0637788
0.0645871
0.0648799
0.064853
0.0635524
0.0617041
0.0598137
0.0580431
0.0592425
0.0607913
0.0620352
0.0629414
0.0629222
0.0599796
0.0458826
0.0317095
0.0257911
0.0241871
0.0256977
0.0349364
0.0495126
0.0627792
0.0766546
0.0859837
0.087473
0.0834777
0.0835807
0.113765
0.248902
0.298743
0.294132
0.216606
0.10399
0.0638311
0.0512059
0.0454775
0.0408608
0.0388683
0.0389518
0.0389896
0.0374421
0.0336045
0.0244948
0.019961
0.0211438
0.0283865
0.0477068
0.0718429
0.0780849
0.0783166
0.077147
0.0765967
0.0765387
0.0764344
0.0746034
0.0734929
0.0713442
0.0673189
0.0596613
0.0513645
0.0455975
0.0405216
0.0422149
0.0405825
0.0388269
0.0373174
0.0356325
0.0312175
0.0242536
0.0210367
0.021813
0.0287854
0.0362665
0.0347891
0.0240701
0.230624
0.414827
0.566267
0.821349
0.667272
0.218746
0.121376
0.11513
0.131362
0.142573
0.145656
0.145678
0.142814
0.132492
0.119028
0.12407
0.165388
0.200812
0.20843
0.210246
0.213088
0.213957
0.212515
0.204202
0.160285
0.090051
0.0503736
0.0301047
0.0235471
0.0236828
0.0253894
0.0289703
0.0315535
0.0325634
0.0326348
0.0325284
0.0324725
0.0324784
0.0326562
0.0329352
0.0326766
0.0316961
0.0290173
0.0228165
0.0130225
0.00721164
0.0045656
0.00386189
0.00420409
0.00534074
0.0095752
0.0134366
0.156286
0.16136
0.134741
0.127812
0.130348
0.138089
0.147751
0.153548
0.159665
0.160631
0.15923
0.15639
0.152175
0.142492
0.121174
0.0954985
0.0708846
0.061524
0.0464456
0.0454165
0.0473713
0.0402125
0.0400407
0.0446258
0.0460236
0.0463568
0.0485167