/*--------------------------------*- C++ -*----------------------------------*\
  =========                 |
  \\      /  F ield         | OpenFOAM: The Open Source CFD Toolbox
   \\    /   O peration     | Website:  https://openfoam.org
    \\  /    A nd           | Version:  6
     \\/     M anipulation  |
\*---------------------------------------------------------------------------*/
FoamFile
{
    version     2.0;
    format      ascii;
    class       surfaceScalarField;
    location    "0.15";
    object      phi_0;
}
// * * * * * * * * * * * * * * * * * * * * * * * * * * * * * * * * * * * * * //

dimensions      [0 3 -1 0 0 0 0];

internalField   nonuniform List<scalar> 
24170
(
3.12276e-06
7.79274e-08
3.00554e-06
1.17223e-07
2.89143e-06
1.14113e-07
2.79937e-06
9.20568e-08
2.73432e-06
6.50512e-08
2.6739e-06
6.04216e-08
2.59717e-06
7.6722e-08
2.50587e-06
9.13014e-08
2.41548e-06
9.03943e-08
2.33725e-06
7.8227e-08
2.27089e-06
6.6359e-08
2.21007e-06
6.08208e-08
2.14804e-06
6.2037e-08
2.08609e-06
6.19485e-08
2.02621e-06
5.98778e-08
1.97116e-06
5.50534e-08
1.92189e-06
4.92649e-08
4.13393e-08
1.88055e-06
3.42467e-06
6.83291e-08
3.44902e-06
9.28708e-08
3.45627e-06
1.06871e-07
3.44602e-06
1.02302e-07
3.43942e-06
7.16529e-08
3.44489e-06
5.49547e-08
3.45311e-06
6.84971e-08
3.45512e-06
8.92951e-08
3.45117e-06
9.43422e-08
3.44626e-06
8.31361e-08
3.44314e-06
6.94784e-08
3.4406e-06
6.33642e-08
3.435e-06
6.76363e-08
3.4238e-06
7.31458e-08
3.40752e-06
7.61536e-08
3.38845e-06
7.41295e-08
3.37177e-06
6.59388e-08
5.60306e-08
3.35708e-06
3.66767e-06
6.55893e-08
3.66692e-06
9.3622e-08
3.70283e-06
7.09627e-08
3.74331e-06
6.18242e-08
3.76589e-06
4.90743e-08
3.77134e-06
4.95e-08
3.76967e-06
7.01684e-08
3.76943e-06
8.95313e-08
3.77268e-06
9.10968e-08
3.77649e-06
7.93274e-08
3.77732e-06
6.86454e-08
3.77395e-06
6.67346e-08
3.76799e-06
7.35915e-08
3.76048e-06
8.06636e-08
3.75354e-06
8.30925e-08
3.74849e-06
7.91747e-08
3.74541e-06
6.90257e-08
5.38732e-08
3.74756e-06
3.93576e-06
1.16663e-07
3.95985e-06
6.95338e-08
3.96761e-06
6.32015e-08
3.94815e-06
8.12862e-08
3.92029e-06
7.69368e-08
3.90246e-06
6.73242e-08
3.90196e-06
7.06742e-08
3.91557e-06
7.59182e-08
3.93607e-06
7.06e-08
3.95742e-06
5.79752e-08
3.97653e-06
4.95372e-08
3.9925e-06
5.07589e-08
4.00611e-06
5.99794e-08
4.01695e-06
6.98251e-08
4.02563e-06
7.44192e-08
4.03266e-06
7.21382e-08
4.03878e-06
6.29134e-08
4.62823e-08
4.04637e-06
4.2429e-06
1.48596e-07
4.24518e-06
6.72538e-08
4.27102e-06
3.7363e-08
4.28004e-06
7.22737e-08
4.26134e-06
9.56362e-08
4.23175e-06
9.69052e-08
4.21366e-06
8.87698e-08
4.21414e-06
7.54332e-08
4.2265e-06
5.82492e-08
4.24181e-06
4.26607e-08
4.2556e-06
3.5745e-08
4.26721e-06
3.91461e-08
4.27766e-06
4.95308e-08
4.28702e-06
6.04703e-08
4.29542e-06
6.60168e-08
4.30314e-06
6.44202e-08
4.31046e-06
5.55955e-08
3.91282e-08
4.31761e-06
4.55349e-06
1.68178e-07
4.59654e-06
2.42101e-08
4.62561e-06
8.28983e-09
4.65881e-06
3.90789e-08
4.68288e-06
7.15607e-08
4.68176e-06
9.80213e-08
4.65958e-06
1.10951e-07
4.62868e-06
1.06335e-07
4.59752e-06
8.94096e-08
4.57028e-06
6.99063e-08
4.55025e-06
5.57719e-08
4.53998e-06
4.94118e-08
4.54079e-06
4.87265e-08
4.55155e-06
4.97115e-08
4.56908e-06
4.84793e-08
4.59016e-06
4.33431e-08
4.61109e-06
3.46656e-08
2.1534e-08
4.62868e-06
4.97087e-06
1.60352e-07
4.95307e-06
4.20124e-08
4.95635e-06
5.01367e-09
4.95508e-06
4.03468e-08
4.95088e-06
7.57595e-08
4.94704e-06
1.01865e-07
4.94107e-06
1.16922e-07
4.92988e-06
1.17522e-07
4.91441e-06
1.0488e-07
4.89972e-06
8.45972e-08
4.89185e-06
6.36454e-08
4.89428e-06
4.69803e-08
4.90677e-06
3.62341e-08
4.92616e-06
3.03188e-08
4.94728e-06
2.73579e-08
4.96573e-06
2.48967e-08
4.97807e-06
2.2328e-08
1.72445e-08
4.98236e-06
5.30942e-06
1.4212e-07
5.31027e-06
4.11627e-08
5.30723e-06
8.04862e-09
5.29539e-06
5.21957e-08
5.28461e-06
8.65377e-08
5.27949e-06
1.06979e-07
5.27952e-06
1.16894e-07
5.28089e-06
1.16156e-07
5.27898e-06
1.06789e-07
5.27128e-06
9.22908e-08
5.25873e-06
7.61996e-08
5.24533e-06
6.0379e-08
5.23586e-06
4.57089e-08
5.23403e-06
3.21506e-08
5.24138e-06
2.00049e-08
5.25667e-06
9.60144e-09
5.27846e-06
5.3947e-10
-5.8568e-09
5.30156e-06
5.56308e-06
1.70331e-07
5.61339e-06
-9.14881e-09
5.62017e-06
1.26625e-09
5.60046e-06
7.19133e-08
5.59377e-06
9.32211e-08
5.60497e-06
9.57828e-08
5.62163e-06
1.00235e-07
5.63205e-06
1.05734e-07
5.63104e-06
1.07799e-07
5.62002e-06
1.03306e-07
5.60475e-06
9.1469e-08
5.59182e-06
7.33151e-08
5.58575e-06
5.17811e-08
5.58787e-06
3.00276e-08
5.59736e-06
1.05104e-08
5.61218e-06
-5.21189e-09
5.63e-06
-1.72884e-08
-2.51112e-08
5.64926e-06
5.99706e-06
1.24426e-07
5.96557e-06
2.23458e-08
5.89529e-06
7.15443e-08
5.85918e-06
1.08025e-07
5.87314e-06
7.92605e-08
5.91557e-06
5.33553e-08
5.95568e-06
6.0121e-08
5.97669e-06
8.47279e-08
5.9819e-06
1.02582e-07
5.98412e-06
1.01092e-07
5.99311e-06
8.24779e-08
6.01075e-06
5.56781e-08
6.03357e-06
2.89538e-08
6.05665e-06
6.94899e-09
6.07652e-06
-9.35738e-09
6.09186e-06
-2.05563e-08
6.10243e-06
-2.78557e-08
-3.29849e-08
6.1103e-06
6.41067e-06
7.55043e-08
6.46981e-06
-3.67902e-08
6.49741e-06
4.39393e-08
6.48985e-06
1.15587e-07
6.45896e-06
1.10157e-07
6.41915e-06
9.31647e-08
6.38993e-06
8.93423e-08
6.38484e-06
8.98147e-08
6.40373e-06
8.36892e-08
6.43627e-06
6.8553e-08
6.46989e-06
4.886e-08
6.49575e-06
2.98162e-08
6.51075e-06
1.39571e-08
6.51608e-06
1.6121e-09
6.51512e-06
-8.39331e-09
6.51069e-06
-1.61219e-08
6.50568e-06
-2.28478e-08
-2.66816e-08
6.49937e-06
5.72465e-06
9.35129e-08
5.68932e-06
-1.45266e-09
5.68337e-06
4.98866e-08
5.67407e-06
1.24886e-07
5.66156e-06
1.2267e-07
5.6621e-06
9.2617e-08
5.68374e-06
6.77066e-08
5.72026e-06
5.3297e-08
5.7589e-06
4.50444e-08
5.78887e-06
3.85884e-08
5.80516e-06
3.25658e-08
5.80817e-06
2.68037e-08
5.80169e-06
2.04379e-08
5.79078e-06
1.25257e-08
5.78024e-06
2.1445e-09
5.77339e-06
-9.27458e-09
5.77176e-06
-2.12129e-08
-3.13152e-08
5.77639e-06
7.01596e-06
-1.04769e-07
7.106e-06
-9.14905e-08
7.10777e-06
4.81205e-08
7.11139e-06
1.21259e-07
7.13222e-06
1.01844e-07
7.15978e-06
6.50527e-08
7.17513e-06
5.23577e-08
7.16822e-06
6.0211e-08
7.1442e-06
6.90614e-08
7.11537e-06
6.74173e-08
7.09142e-06
5.65199e-08
7.07642e-06
4.18058e-08
7.06982e-06
2.70365e-08
7.07007e-06
1.22684e-08
7.0747e-06
-2.48008e-09
7.08232e-06
-1.69003e-08
7.09095e-06
-2.98385e-08
-3.83751e-08
7.09801e-06
8.49117e-06
-4.94536e-08
8.38752e-06
1.21623e-08
8.32452e-06
1.11117e-07
8.33971e-06
1.06065e-07
8.40335e-06
3.82031e-08
8.486e-06
-1.75893e-08
8.56085e-06
-2.24914e-08
8.61132e-06
9.73634e-09
8.63628e-06
4.40974e-08
8.64443e-06
5.92735e-08
8.64547e-06
5.54817e-08
8.6465e-06
4.0773e-08
8.65169e-06
2.18438e-08
8.66306e-06
8.95257e-10
8.68146e-06
-2.08714e-08
8.70536e-06
-4.08074e-08
8.7333e-06
-5.77791e-08
-6.63692e-08
8.7613e-06
1.04073e-05
3.43013e-08
1.03837e-05
3.57225e-08
1.04056e-05
8.92388e-08
1.04722e-05
3.94342e-08
1.05405e-05
-3.01245e-08
1.05601e-05
-3.71711e-08
1.05284e-05
9.24176e-09
1.04791e-05
5.89809e-08
1.04452e-05
7.80829e-08
1.04382e-05
6.6281e-08
1.04511e-05
4.2535e-08
1.04692e-05
2.26636e-08
1.04801e-05
1.0914e-08
1.04781e-05
2.97915e-09
1.04654e-05
-8.19286e-09
1.04481e-05
-2.35653e-08
1.04339e-05
-4.35091e-08
-6.18571e-08
1.04294e-05
1.26174e-05
-7.95212e-09
1.25929e-05
6.02936e-08
1.26564e-05
2.568e-08
1.27322e-05
-3.63194e-08
1.27809e-05
-7.88868e-08
1.28117e-05
-6.79373e-08
1.28396e-05
-1.86381e-08
1.2877e-05
2.15408e-08
1.29277e-05
2.73591e-08
1.29822e-05
1.1802e-08
1.30238e-05
9.72588e-10
1.3039e-05
7.44516e-09
1.30242e-05
2.57341e-08
1.29855e-05
4.16444e-08
1.29347e-05
4.25991e-08
1.28844e-05
2.67293e-08
1.28435e-05
-2.62097e-09
-3.28097e-08
1.28145e-05
1.56071e-05
1.62916e-07
1.544e-05
2.27418e-07
1.53307e-05
1.35013e-07
1.53115e-05
-1.71367e-08
1.53376e-05
-1.04968e-07
1.53671e-05
-9.74807e-08
1.53871e-05
-3.86147e-08
1.53969e-05
1.17581e-08
1.53994e-05
2.47793e-08
1.54011e-05
1.01616e-08
1.541e-05
-7.99722e-09
1.54327e-05
-1.51827e-08
1.54705e-05
-1.20975e-08
1.552e-05
-7.85334e-09
1.55734e-05
-1.07499e-08
1.56226e-05
-2.2544e-08
1.56601e-05
-4.01378e-08
-5.94447e-08
1.56868e-05
1.8711e-05
1.09861e-07
1.88535e-05
8.48697e-08
1.89276e-05
6.09834e-08
1.88896e-05
2.08298e-08
1.88088e-05
-2.42132e-08
1.87555e-05
-4.41386e-08
1.87545e-05
-3.75823e-08
1.87929e-05
-2.66304e-08
1.88472e-05
-2.95274e-08
1.89024e-05
-4.50508e-08
1.89561e-05
-6.17405e-08
1.90122e-05
-7.12833e-08
1.90723e-05
-7.21634e-08
1.91317e-05
-6.73006e-08
1.918e-05
-5.90512e-08
1.9207e-05
-4.9544e-08
1.92053e-05
-3.83575e-08
-2.32899e-08
1.91691e-05
2.28972e-05
9.89902e-09
2.29504e-05
3.16168e-08
2.30072e-05
4.17413e-09
2.30404e-05
-1.2324e-08
2.30427e-05
-2.6565e-08
2.3029e-05
-3.03514e-08
2.30105e-05
-1.91653e-08
2.29862e-05
-2.23932e-09
2.2948e-05
8.67174e-09
2.28957e-05
7.18896e-09
2.28412e-05
-7.25238e-09
2.28009e-05
-3.09821e-08
2.27861e-05
-5.73122e-08
2.2798e-05
-7.92466e-08
2.283e-05
-9.10805e-08
2.28712e-05
-9.0677e-08
2.29121e-05
-7.92587e-08
-6.1418e-08
2.29502e-05
1.68886e-05
-3.69112e-08
1.69568e-05
-3.65757e-08
1.69542e-05
6.80173e-09
1.68967e-05
4.5143e-08
1.6812e-05
5.81702e-08
1.67304e-05
5.12895e-08
1.66801e-05
3.11265e-08
1.66723e-05
5.52192e-09
1.67002e-05
-1.92404e-08
1.67488e-05
-4.13688e-08
1.68025e-05
-6.09491e-08
1.68483e-05
-7.67576e-08
1.68774e-05
-8.64254e-08
1.68868e-05
-8.86881e-08
1.68801e-05
-8.43707e-08
1.68649e-05
-7.5479e-08
1.68501e-05
-6.44235e-08
-5.09469e-08
1.68396e-05
1.49429e-05
2.07829e-07
1.48619e-05
4.43473e-08
1.48246e-05
4.41104e-08
1.47944e-05
7.53872e-08
1.47629e-05
8.96878e-08
1.47446e-05
6.95341e-08
1.47531e-05
2.26085e-08
1.47869e-05
-2.8233e-08
1.48338e-05
-6.61827e-08
1.48791e-05
-8.66015e-08
1.49101e-05
-9.19571e-08
1.49197e-05
-8.64093e-08
1.49075e-05
-7.41473e-08
1.48783e-05
-5.9511e-08
1.484e-05
-4.6057e-08
1.47999e-05
-3.5461e-08
1.47635e-05
-2.79282e-08
-2.43548e-08
1.47369e-05
1.30277e-05
-8.28574e-08
1.30687e-05
3.32024e-09
1.30525e-05
6.03135e-08
1.30131e-05
1.14807e-07
1.29456e-05
1.57179e-07
1.2871e-05
1.44202e-07
1.28147e-05
7.88312e-08
1.27854e-05
1.12794e-09
1.2776e-05
-5.68466e-08
1.27791e-05
-8.97125e-08
1.27918e-05
-1.04592e-07
1.28118e-05
-1.06474e-07
1.28349e-05
-9.72374e-08
1.2855e-05
-7.96012e-08
1.2868e-05
-5.90655e-08
1.28732e-05
-4.06627e-08
1.28733e-05
-2.80127e-08
-2.08987e-08
1.28699e-05
1.10386e-05
-1.96442e-07
1.10847e-05
-4.27601e-08
1.10776e-05
6.73688e-08
1.10758e-05
1.16636e-07
1.11072e-05
1.25786e-07
1.11825e-05
6.88764e-08
1.127e-05
-8.62591e-09
1.13237e-05
-5.26456e-08
1.13218e-05
-5.4949e-08
1.12735e-05
-4.13716e-08
1.1204e-05
-3.5082e-08
1.1137e-05
-3.94877e-08
1.10859e-05
-4.6097e-08
1.10533e-05
-4.70729e-08
1.10366e-05
-4.23639e-08
1.10317e-05
-3.57264e-08
1.10354e-05
-3.17458e-08
-3.39738e-08
1.10485e-05
9.73635e-06
4.40291e-08
9.6146e-06
7.89875e-08
9.57676e-06
1.05211e-07
9.60578e-06
8.76227e-08
9.66603e-06
6.55336e-08
9.69188e-06
4.30229e-08
9.66832e-06
1.49312e-08
9.62748e-06
-1.17973e-08
9.60239e-06
-2.98676e-08
9.6005e-06
-3.94779e-08
9.60934e-06
-4.39198e-08
9.61481e-06
-4.49614e-08
9.61191e-06
-4.31926e-08
9.60486e-06
-4.00222e-08
9.60094e-06
-3.84483e-08
9.60519e-06
-3.99777e-08
9.61868e-06
-4.52338e-08
-5.2298e-08
9.63701e-06
8.32339e-06
-6.63883e-09
8.37867e-06
2.37043e-08
8.42898e-06
5.49059e-08
8.44499e-06
7.16107e-08
8.44678e-06
6.37383e-08
8.47425e-06
1.5554e-08
8.53701e-06
-4.78237e-08
8.61266e-06
-8.74503e-08
8.6695e-06
-8.67094e-08
8.68578e-06
-5.57582e-08
8.65815e-06
-1.62857e-08
8.59981e-06
1.33802e-08
8.53208e-06
2.45365e-08
8.47402e-06
1.80359e-08
8.43556e-06
9.29345e-12
8.41742e-06
-2.18309e-08
8.41447e-06
-4.22844e-08
-5.8074e-08
8.42024e-06
7.38245e-06
-2.23102e-07
7.36576e-06
4.04e-08
7.33558e-06
8.5089e-08
7.32636e-06
8.08239e-08
7.33047e-06
5.96275e-08
7.32822e-06
1.78126e-08
7.30794e-06
-2.75441e-08
7.2771e-06
-5.66148e-08
7.25214e-06
-6.17462e-08
7.24513e-06
-4.87497e-08
7.25906e-06
-3.02205e-08
7.28979e-06
-1.73512e-08
7.32933e-06
-1.50021e-08
7.36852e-06
-2.11532e-08
7.39936e-06
-3.08302e-08
7.41733e-06
-3.97977e-08
7.42153e-06
-4.64835e-08
-5.03991e-08
7.41385e-06
6.16427e-06
-1.41762e-07
6.18902e-06
1.56539e-08
6.26385e-06
1.02599e-08
6.34676e-06
-2.08396e-09
6.40983e-06
-3.44593e-09
6.44044e-06
-1.27934e-08
6.44369e-06
-3.07961e-08
6.43607e-06
-4.89998e-08
6.43318e-06
-5.88521e-08
6.44233e-06
-5.78986e-08
6.46216e-06
-5.00571e-08
6.48634e-06
-4.15289e-08
6.5081e-06
-3.67576e-08
6.52348e-06
-3.65326e-08
6.53139e-06
-3.87469e-08
6.5327e-06
-4.11013e-08
6.5279e-06
-4.16875e-08
-4.16786e-08
6.51918e-06
5.49073e-06
-1.91439e-07
5.52348e-06
-1.71021e-08
5.48119e-06
5.25526e-08
5.45477e-06
2.43368e-08
5.47053e-06
-1.9208e-08
5.51275e-06
-5.50163e-08
5.563e-06
-8.10403e-08
5.6088e-06
-9.48032e-08
5.64251e-06
-9.25617e-08
5.66148e-06
-7.68659e-08
5.66843e-06
-5.70092e-08
5.66956e-06
-4.26577e-08
5.67094e-06
-3.81361e-08
5.67619e-06
-4.17865e-08
5.68564e-06
-4.81925e-08
5.69746e-06
-5.29234e-08
5.70927e-06
-5.35014e-08
-4.92525e-08
5.71685e-06
4.70668e-06
-1.48583e-07
4.73581e-06
-4.62348e-08
4.82198e-06
-3.36168e-08
4.90285e-06
-5.6533e-08
4.94709e-06
-6.34467e-08
4.95678e-06
-6.47026e-08
4.94675e-06
-7.10159e-08
4.92994e-06
-7.79868e-08
4.91367e-06
-7.62962e-08
4.90158e-06
-6.47742e-08
4.89508e-06
-5.05036e-08
4.89347e-06
-4.10491e-08
4.89431e-06
-3.89795e-08
4.89484e-06
-4.23187e-08
4.89382e-06
-4.71743e-08
4.89151e-06
-5.06141e-08
4.88911e-06
-5.10946e-08
-4.9288e-08
4.88914e-06
4.11095e-06
4.06472e-06
4.0311e-06
3.97457e-06
3.91112e-06
3.84642e-06
3.7754e-06
3.69742e-06
3.62112e-06
3.55634e-06
3.50584e-06
3.46479e-06
3.42581e-06
3.38349e-06
3.33632e-06
3.28571e-06
3.23461e-06
3.18532e-06
6.9483e-08
-6.9483e-08
1.11339e-07
-4.18558e-08
1.14294e-07
-2.95486e-09
8.21382e-08
3.21554e-08
2.46449e-08
5.74933e-08
-4.41057e-08
6.87507e-08
-1.09399e-07
6.52938e-08
-1.68857e-07
5.94577e-08
-2.38855e-07
6.99982e-08
-3.39656e-07
1.008e-07
-4.84937e-07
1.45281e-07
-6.72192e-07
1.87255e-07
-8.69382e-07
1.9719e-07
-1.02275e-06
1.53369e-07
-1.10732e-06
8.45641e-08
-1.13815e-06
3.08358e-08
-1.12802e-06
-1.01284e-08
-1.07941e-06
-4.86174e-08
-9.99304e-07
-8.01007e-08
-8.96322e-07
-1.02982e-07
-7.75371e-07
-1.20951e-07
-6.40057e-07
-1.35314e-07
-4.9441e-07
-1.45647e-07
-3.42675e-07
-1.51735e-07
-1.89822e-07
-1.52854e-07
-4.13668e-08
-1.48455e-07
9.75891e-08
-1.38956e-07
2.22195e-07
-1.24606e-07
3.2924e-07
-1.07044e-07
4.14602e-07
-8.53627e-08
4.73714e-07
-5.9112e-08
5.02716e-07
-2.90021e-08
4.99836e-07
2.8805e-09
4.65745e-07
3.40907e-08
4.03102e-07
6.26434e-08
3.16872e-07
8.62299e-08
2.1296e-07
1.03911e-07
9.68166e-08
1.16144e-07
-2.67532e-08
1.2357e-07
-1.53487e-07
1.26734e-07
-2.80781e-07
1.27295e-07
-4.0783e-07
1.27049e-07
-5.35144e-07
1.27314e-07
-6.63589e-07
1.28445e-07
-7.94249e-07
1.30659e-07
-9.28417e-07
1.34168e-07
-1.06585e-06
1.37434e-07
-1.20273e-06
1.36879e-07
-1.33259e-06
1.29857e-07
-1.449e-06
1.16414e-07
-1.54671e-06
9.77052e-08
-1.62318e-06
7.64718e-08
-1.67736e-06
5.41823e-08
-1.70658e-06
2.92217e-08
-1.70663e-06
5.05228e-11
-1.67182e-06
-3.48079e-08
-1.59552e-06
-7.62996e-08
-1.47355e-06
-1.21977e-07
-1.30542e-06
-1.68125e-07
-1.09552e-06
-2.09903e-07
-8.54119e-07
-2.414e-07
-5.99953e-07
-2.54166e-07
-3.49953e-07
-2.5e-07
-1.17471e-07
-2.32481e-07
8.94546e-08
-2.06926e-07
2.69554e-07
-1.80099e-07
4.27645e-07
-1.58091e-07
5.70785e-07
-1.4314e-07
7.08288e-07
-1.37502e-07
8.48285e-07
-1.39998e-07
9.97696e-07
-1.49411e-07
1.14512e-06
-1.4742e-07
1.25873e-06
-1.13619e-07
1.31483e-06
-5.61e-08
1.37638e-06
-6.15405e-08
1.48558e-06
-1.09207e-07
1.54745e-06
-6.18707e-08
1.53317e-06
1.42838e-08
1.55081e-06
-1.76413e-08
1.63646e-06
-8.56478e-08
1.69423e-06
-5.7774e-08
1.68525e-06
8.98528e-09
1.68419e-06
1.05809e-09
1.70047e-06
-1.62781e-08
1.72158e-06
-2.1113e-08
1.72582e-06
-4.24258e-09
1.62586e-06
9.99668e-08
1.38078e-06
2.4508e-07
1.35033e-06
3.04433e-08
1.53491e-06
-1.84574e-07
1.42697e-06
1.07939e-07
9.11705e-07
5.15262e-07
1.98523e-07
7.13183e-07
-5.46794e-07
7.45316e-07
-1.31522e-06
7.68428e-07
-2.10453e-06
7.89312e-07
-2.93122e-06
8.2669e-07
-3.78465e-06
8.53425e-07
-4.65886e-06
8.7421e-07
-5.53676e-06
8.77901e-07
-6.39714e-06
8.60382e-07
-7.21212e-06
8.14973e-07
-7.95365e-06
7.41533e-07
-8.59032e-06
6.36676e-07
-9.08961e-06
4.99285e-07
-9.42047e-06
3.30866e-07
-9.56187e-06
1.41393e-07
-9.51198e-06
-4.98915e-08
-9.2901e-06
-2.21875e-07
-8.92118e-06
-3.68916e-07
-8.4353e-06
-4.85887e-07
-7.86818e-06
-5.67118e-07
-7.25238e-06
-6.15795e-07
-6.61504e-06
-6.3735e-07
-5.97484e-06
-6.402e-07
-5.34368e-06
-6.31153e-07
-4.72732e-06
-6.16362e-07
-4.12772e-06
-5.99598e-07
-3.54431e-06
-5.83411e-07
-2.97525e-06
-5.69062e-07
-2.4179e-06
-5.57352e-07
-1.86797e-06
-5.49928e-07
-1.31855e-06
-5.49417e-07
-7.68151e-07
-5.50402e-07
-2.47015e-07
-5.21136e-07
1.13355e-08
-2.58351e-07
5.11708e-07
-5.00372e-07
1.28006e-06
-7.68352e-07
1.91227e-06
-6.32213e-07
2.13863e-06
-2.26361e-07
2.16492e-06
-2.6282e-08
2.01169e-06
1.5323e-07
1.67612e-06
3.35561e-07
1.69433e-06
-1.82012e-08
1.91379e-06
-2.19466e-07
9.66312e-07
9.4748e-07
-2.19151e-06
3.15782e-06
-6.26673e-06
4.07523e-06
-9.48717e-06
3.22043e-06
-1.16837e-05
2.19654e-06
-1.30544e-05
1.37072e-06
-1.38028e-05
7.4842e-07
-1.40953e-05
2.92433e-07
-1.40346e-05
-6.06352e-08
-1.36999e-05
-3.34763e-07
-1.31327e-05
-5.67224e-07
-1.23449e-05
-7.87802e-07
-1.13353e-05
-1.00957e-06
-1.01134e-05
-1.22187e-06
-8.7339e-06
-1.37951e-06
-7.29157e-06
-1.44233e-06
-5.88649e-06
-1.40509e-06
-4.58906e-06
-1.29743e-06
-3.43935e-06
-1.14971e-06
-2.44735e-06
-9.92002e-07
-1.60391e-06
-8.43439e-07
-8.87611e-07
-7.16302e-07
-2.7447e-07
-6.13141e-07
2.58234e-07
-5.32703e-07
7.32671e-07
-4.74437e-07
1.17091e-06
-4.38239e-07
1.58844e-06
-4.1753e-07
1.99322e-06
-4.04778e-07
2.39196e-06
-3.98747e-07
2.79052e-06
-3.98561e-07
3.1956e-06
-4.05076e-07
3.61155e-06
-4.15949e-07
4.04138e-06
-4.29834e-07
4.48516e-06
-4.43772e-07
4.94046e-06
-4.55304e-07
5.38947e-06
-4.4901e-07
5.81955e-06
-4.3008e-07
6.21351e-06
-3.93964e-07
6.57698e-06
-3.63468e-07
6.8988e-06
-3.21816e-07
7.20923e-06
-3.10432e-07
7.49207e-06
-2.82836e-07
7.76547e-06
-2.734e-07
7.88141e-06
-1.15942e-07
1.18672e-07
7.76274e-06
-6.28561e-08
-6.62685e-09
-1.5866e-07
5.39484e-08
-2.57129e-07
9.55135e-08
-3.40468e-07
1.15495e-07
-4.075e-07
1.24525e-07
-4.7676e-07
1.38011e-07
-5.74083e-07
1.62617e-07
-7.07199e-07
1.92574e-07
-8.56735e-07
2.19534e-07
-9.93929e-07
2.37994e-07
-1.09353e-06
2.44887e-07
-1.14109e-06
2.34805e-07
-1.14281e-06
1.98919e-07
-1.12459e-06
1.35142e-07
-1.10112e-06
6.10938e-08
-1.06362e-06
-6.6574e-09
-1.00309e-06
-7.06598e-08
-9.21073e-07
-1.30636e-07
-8.22893e-07
-1.7828e-07
-7.12111e-07
-2.13764e-07
-5.9122e-07
-2.41842e-07
-4.64406e-07
-2.62128e-07
-3.33377e-07
-2.76676e-07
-1.96178e-07
-2.88934e-07
-5.58902e-08
-2.93142e-07
7.89351e-08
-2.8328e-07
2.03033e-07
-2.63053e-07
3.13453e-07
-2.35027e-07
4.09102e-07
-2.02693e-07
4.86204e-07
-1.62464e-07
5.39646e-07
-1.12555e-07
5.64906e-07
-5.42616e-08
5.58953e-07
8.83346e-09
5.20756e-07
7.22874e-08
4.51166e-07
1.32234e-07
3.52418e-07
1.84977e-07
2.28933e-07
2.27396e-07
8.73119e-08
2.57765e-07
-6.55058e-08
2.76387e-07
-2.24648e-07
2.85876e-07
-3.8669e-07
2.89337e-07
-5.47839e-07
2.88198e-07
-7.04182e-07
2.83657e-07
-8.53249e-07
2.77512e-07
-9.94856e-07
2.72266e-07
-1.12925e-06
2.68561e-07
-1.25505e-06
2.63235e-07
-1.37139e-06
2.53215e-07
-1.47939e-06
2.37857e-07
-1.57877e-06
2.15795e-07
-1.6669e-06
1.85842e-07
-1.74006e-06
1.49631e-07
-1.79201e-06
1.06128e-07
-1.81652e-06
5.37346e-08
-1.80939e-06
-7.08567e-09
-1.77017e-06
-7.40191e-08
-1.69512e-06
-1.51354e-07
-1.57557e-06
-2.41529e-07
-1.40665e-06
-3.37042e-07
-1.19517e-06
-4.21387e-07
-9.55612e-07
-4.80956e-07
-6.98244e-07
-5.11534e-07
-4.28601e-07
-5.19643e-07
-1.57692e-07
-5.03391e-07
1.00512e-07
-4.65129e-07
3.3336e-07
-4.12948e-07
5.33775e-07
-3.58506e-07
6.98278e-07
-3.07643e-07
8.28319e-07
-2.67543e-07
9.42224e-07
-2.53902e-07
1.07349e-06
-2.80679e-07
1.22181e-06
-2.95735e-07
1.36818e-06
-2.59997e-07
1.51928e-06
-2.07199e-07
1.66208e-06
-2.04338e-07
1.74563e-06
-1.92757e-07
1.80378e-06
-1.20021e-07
1.92588e-06
-1.07815e-07
2.08619e-06
-1.7795e-07
2.13814e-06
-1.37603e-07
2.03716e-06
4.32131e-08
1.90997e-06
1.36171e-07
1.85518e-06
5.58456e-08
1.89255e-06
-5.36435e-08
1.96509e-06
-9.36583e-08
1.93147e-06
2.93779e-08
1.7302e-06
3.0124e-07
1.7384e-06
2.36878e-07
1.63289e-06
1.35954e-07
8.21337e-07
6.2698e-07
-3.05184e-07
1.23446e-06
-1.28117e-06
1.49125e-06
-2.11767e-06
1.54968e-06
-2.89806e-06
1.5257e-06
-3.63529e-06
1.50566e-06
-4.34253e-06
1.49655e-06
-5.02389e-06
1.50805e-06
-5.68814e-06
1.51768e-06
-6.33872e-06
1.52479e-06
-6.97318e-06
1.51236e-06
-7.58453e-06
1.47173e-06
-8.16153e-06
1.39198e-06
-8.68625e-06
1.26625e-06
-9.13525e-06
1.08568e-06
-9.48221e-06
8.46244e-07
-9.70235e-06
5.51006e-07
-9.77645e-06
2.15498e-07
-9.69019e-06
-1.36152e-07
-9.43624e-06
-4.75828e-07
-9.0315e-06
-7.73652e-07
-8.51032e-06
-1.00707e-06
-7.90956e-06
-1.16787e-06
-7.2656e-06
-1.25976e-06
-6.60559e-06
-1.29736e-06
-5.94821e-06
-1.29758e-06
-5.30392e-06
-1.27545e-06
-4.6776e-06
-1.24268e-06
-4.06988e-06
-1.20731e-06
-3.47931e-06
-1.17399e-06
-2.90291e-06
-1.14545e-06
-2.33675e-06
-1.12352e-06
-1.77639e-06
-1.11028e-06
-1.21933e-06
-1.10648e-06
-6.7103e-07
-1.0987e-06
-1.76827e-07
-1.01534e-06
1.91956e-07
-6.27134e-07
9.01123e-07
-1.20954e-06
1.75698e-06
-1.62421e-06
2.34822e-06
-1.22346e-06
2.58e-06
-4.5814e-07
2.39218e-06
1.61539e-07
2.04385e-06
5.01561e-07
2.27417e-06
1.05241e-07
2.20216e-06
5.38059e-08
1.83663e-07
1.79903e-06
-3.64568e-06
4.77683e-06
-7.32236e-06
6.83449e-06
-9.72835e-06
6.48122e-06
-1.12546e-05
4.74664e-06
-1.23196e-05
3.26155e-06
-1.30178e-05
2.06891e-06
-1.3424e-05
1.15468e-06
-1.35647e-05
4.33064e-07
-1.34616e-05
-1.63658e-07
-1.31159e-05
-6.80517e-07
-1.25466e-05
-1.13654e-06
-1.17624e-05
-1.57193e-06
-1.07545e-05
-2.01753e-06
-9.52613e-06
-2.45021e-06
-8.12547e-06
-2.78017e-06
-6.65761e-06
-2.91019e-06
-5.23496e-06
-2.82774e-06
-3.93763e-06
-2.59476e-06
-2.80713e-06
-2.2802e-06
-1.85159e-06
-1.94755e-06
-1.05753e-06
-1.63749e-06
-3.98003e-07
-1.37583e-06
1.57491e-07
-1.16864e-06
6.40855e-07
-1.01607e-06
1.07978e-06
-9.13362e-07
1.49142e-06
-8.49876e-07
1.88635e-06
-8.12462e-07
2.2712e-06
-7.89628e-07
2.65207e-06
-7.79612e-07
3.03577e-06
-7.82264e-07
3.42845e-06
-7.97757e-07
3.8361e-06
-8.23594e-07
4.26283e-06
-8.56567e-07
4.71001e-06
-8.90952e-07
5.1733e-06
-9.18597e-07
5.64203e-06
-9.17741e-07
6.09631e-06
-8.84361e-07
6.51998e-06
-8.17636e-07
6.90325e-06
-7.46739e-07
7.26168e-06
-6.80243e-07
7.59202e-06
-6.40771e-07
7.89715e-06
-5.87963e-07
8.18325e-06
-5.59503e-07
8.40417e-06
-3.36856e-07
-8.40192e-09
8.53124e-06
-1.52612e-07
1.45985e-07
-3.06509e-07
2.07845e-07
-4.35362e-07
2.24367e-07
-5.41047e-07
2.21179e-07
-6.32721e-07
2.16199e-07
-7.21239e-07
2.26529e-07
-8.0782e-07
2.49198e-07
-8.85155e-07
2.69908e-07
-9.45537e-07
2.79916e-07
-9.85625e-07
2.78082e-07
-1.00358e-06
2.62837e-07
-9.9779e-07
2.2902e-07
-9.71313e-07
1.72442e-07
-9.33111e-07
9.69397e-08
-8.84351e-07
1.23329e-08
-8.14865e-07
-7.61428e-08
-7.22927e-07
-1.62597e-07
-6.2417e-07
-2.29393e-07
-5.31425e-07
-2.71025e-07
-4.38441e-07
-3.06749e-07
-3.38863e-07
-3.41421e-07
-2.39848e-07
-3.61142e-07
-1.43524e-07
-3.73e-07
-3.89295e-08
-3.93528e-07
7.27535e-08
-4.04825e-07
1.78966e-07
-3.89493e-07
2.77559e-07
-3.61646e-07
3.73012e-07
-3.3048e-07
4.63655e-07
-2.93336e-07
5.39193e-07
-2.38002e-07
5.88415e-07
-1.61777e-07
6.02815e-07
-6.86615e-08
5.77678e-07
3.39705e-08
5.12896e-07
1.3707e-07
4.11855e-07
2.33275e-07
2.79561e-07
3.17271e-07
1.21768e-07
3.8519e-07
-5.50907e-08
4.34624e-07
-2.43699e-07
4.64996e-07
-4.37084e-07
4.79261e-07
-6.28938e-07
4.8119e-07
-8.13425e-07
4.72685e-07
-9.86832e-07
4.57063e-07
-1.14928e-06
4.39957e-07
-1.30175e-06
4.24738e-07
-1.44333e-06
4.10142e-07
-1.57364e-06
3.9354e-07
-1.69558e-06
3.75164e-07
-1.8121e-06
3.5437e-07
-1.92346e-06
3.27161e-07
-2.02927e-06
2.91646e-07
-2.12635e-06
2.46717e-07
-2.20688e-06
1.86655e-07
-2.26284e-06
1.09688e-07
-2.29028e-06
2.03633e-08
-2.28282e-06
-8.14872e-08
-2.22317e-06
-2.11005e-07
-2.10099e-06
-3.63707e-07
-1.9152e-06
-5.22829e-07
-1.67304e-06
-6.63548e-07
-1.39297e-06
-7.61025e-07
-1.09224e-06
-8.12269e-07
-7.91296e-07
-8.20582e-07
-5.06483e-07
-7.88204e-07
-2.45751e-07
-7.25861e-07
-1.09423e-08
-6.47757e-07
1.93612e-07
-5.6306e-07
3.66536e-07
-4.80568e-07
5.18584e-07
-4.19591e-07
6.57008e-07
-3.92326e-07
7.85721e-07
-4.09392e-07
9.34472e-07
-4.44485e-07
1.10312e-06
-4.28646e-07
1.2471e-06
-3.51177e-07
1.37597e-06
-3.33209e-07
1.52754e-06
-3.44325e-07
1.70572e-06
-2.98204e-07
1.8252e-06
-2.27289e-07
1.79138e-06
-1.44131e-07
1.65407e-06
-2.96809e-10
1.57771e-06
1.19573e-07
1.65058e-06
6.32993e-08
1.80594e-06
-9.95091e-08
1.99825e-06
-2.45958e-07
2.11575e-06
-2.11159e-07
2.08469e-06
6.04379e-08
2.05247e-06
3.33468e-07
1.79579e-06
4.93553e-07
8.39191e-07
1.09255e-06
-4.55516e-07
1.92169e-06
-1.48251e-06
2.26145e-06
-2.23181e-06
2.24055e-06
-2.84518e-06
2.16305e-06
-3.40283e-06
2.08335e-06
-3.93647e-06
2.0393e-06
-4.46129e-06
2.02137e-06
-4.98514e-06
2.0319e-06
-5.52343e-06
2.05597e-06
-6.08688e-06
2.08824e-06
-6.68024e-06
2.10573e-06
-7.29937e-06
2.09086e-06
-7.93012e-06
2.02272e-06
-8.54394e-06
1.88007e-06
-9.09793e-06
1.63967e-06
-9.54045e-06
1.28876e-06
-9.82395e-06
8.34506e-07
-9.91592e-06
3.07473e-07
-9.80663e-06
-2.45448e-07
-9.51224e-06
-7.70214e-07
-9.06323e-06
-1.22266e-06
-8.49791e-06
-1.57239e-06
-7.85978e-06
-1.80601e-06
-7.18821e-06
-1.93132e-06
-6.51151e-06
-1.97406e-06
-5.84549e-06
-1.9636e-06
-5.1978e-06
-1.92314e-06
-4.57076e-06
-1.86972e-06
-3.96373e-06
-1.81433e-06
-3.37481e-06
-1.76291e-06
-2.80124e-06
-1.71903e-06
-2.23993e-06
-1.68483e-06
-1.68922e-06
-1.66099e-06
-1.14956e-06
-1.64615e-06
-6.15678e-07
-1.63258e-06
-8.02259e-08
-1.55079e-06
4.70262e-07
-1.17762e-06
1.25319e-06
-1.99246e-06
2.10082e-06
-2.47184e-06
2.7147e-06
-1.83734e-06
2.89591e-06
-6.39355e-07
2.52622e-06
5.31234e-07
2.23832e-06
7.89464e-07
1.94142e-06
4.02134e-07
2.16791e-07
1.77844e-06
-3.04599e-06
5.06182e-06
-6.43408e-06
8.16491e-06
-8.60986e-06
9.01027e-06
-9.64699e-06
7.51834e-06
-1.05144e-05
5.61409e-06
-1.13468e-05
4.09387e-06
-1.20131e-05
2.73526e-06
-1.2448e-05
1.58963e-06
-1.26217e-05
6.06723e-07
-1.25503e-05
-2.35025e-07
-1.22537e-05
-9.77175e-07
-1.17516e-05
-1.63859e-06
-1.10461e-05
-2.2775e-06
-1.01164e-05
-2.94716e-06
-8.94157e-06
-3.62508e-06
-7.55e-06
-4.17174e-06
-6.04326e-06
-4.41693e-06
-4.55359e-06
-4.31741e-06
-3.18205e-06
-3.9663e-06
-1.98676e-06
-3.47549e-06
-9.87509e-07
-2.9468e-06
-1.83219e-07
-2.44178e-06
4.44268e-07
-2.00332e-06
9.37017e-07
-1.66138e-06
1.3463e-06
-1.42535e-06
1.71151e-06
-1.27857e-06
2.05481e-06
-1.19318e-06
2.38663e-06
-1.14428e-06
2.71193e-06
-1.11493e-06
3.03466e-06
-1.10234e-06
3.36078e-06
-1.10838e-06
3.69647e-06
-1.13345e-06
4.04788e-06
-1.175e-06
4.42106e-06
-1.22975e-06
4.8216e-06
-1.29149e-06
5.24833e-06
-1.34532e-06
5.69081e-06
-1.36023e-06
6.12586e-06
-1.31941e-06
6.53665e-06
-1.22843e-06
6.90958e-06
-1.11967e-06
7.2565e-06
-1.02717e-06
7.57984e-06
-9.64108e-07
7.89264e-06
-9.00762e-07
8.16276e-06
-8.29633e-07
8.45739e-06
-6.31477e-07
-2.58961e-07
8.70794e-06
-1.45544e-07
2.91529e-07
-2.95155e-07
3.57456e-07
-4.29926e-07
3.59138e-07
-5.56032e-07
3.47285e-07
-6.70602e-07
3.3077e-07
-7.62895e-07
3.18821e-07
-8.21152e-07
3.07456e-07
-8.44623e-07
2.93379e-07
-8.42461e-07
2.77754e-07
-8.23962e-07
2.59583e-07
-7.93737e-07
2.32612e-07
-7.54815e-07
1.90098e-07
-7.11308e-07
1.28935e-07
-6.63343e-07
4.89745e-08
-6.05387e-07
-4.56229e-08
-5.35978e-07
-1.45552e-07
-4.66244e-07
-2.32332e-07
-4.10304e-07
-2.85332e-07
-3.56487e-07
-3.24843e-07
-2.79848e-07
-3.83387e-07
-1.86658e-07
-4.34611e-07
-9.77155e-08
-4.50085e-07
-2.13986e-08
-4.49317e-07
5.57479e-08
-4.70674e-07
1.3958e-07
-4.88657e-07
2.28001e-07
-4.77913e-07
3.29849e-07
-4.63494e-07
4.48437e-07
-4.49068e-07
5.6259e-07
-4.07489e-07
6.48444e-07
-3.23857e-07
6.90708e-07
-2.04041e-07
6.82513e-07
-6.0467e-08
6.24256e-07
9.22273e-08
5.21244e-07
2.40083e-07
3.79357e-07
3.75162e-07
2.05491e-07
4.91136e-07
8.10133e-09
5.8258e-07
-2.03755e-07
6.4648e-07
-4.21976e-07
6.83218e-07
-6.40938e-07
6.98224e-07
-8.59349e-07
6.99601e-07
-1.07553e-06
6.88861e-07
-1.2791e-06
6.60642e-07
-1.45732e-06
6.18172e-07
-1.60866e-06
5.76084e-07
-1.74566e-06
5.47137e-07
-1.88445e-06
5.32329e-07
-2.03278e-06
5.23499e-07
-2.19017e-06
5.11755e-07
-2.35745e-06
4.94443e-07
-2.53091e-06
4.65111e-07
-2.69384e-06
4.09641e-07
-2.83119e-06
3.24012e-07
-2.93296e-06
2.11457e-07
-2.9805e-06
6.79024e-08
-2.95077e-06
-1.11223e-07
-2.83702e-06
-3.24749e-07
-2.64548e-06
-5.55251e-07
-2.3869e-06
-7.81407e-07
-2.08014e-06
-9.7031e-07
-1.7477e-06
-1.09346e-06
-1.4158e-06
-1.14417e-06
-1.11046e-06
-1.12593e-06
-8.38995e-07
-1.05966e-06
-5.94553e-07
-9.70303e-07
-3.74688e-07
-8.67622e-07
-1.86084e-07
-7.51664e-07
-2.64179e-08
-6.40234e-07
1.18771e-07
-5.6478e-07
2.46323e-07
-5.19879e-07
3.25832e-07
-4.889e-07
3.97619e-07
-5.16273e-07
5.29799e-07
-5.60826e-07
6.86538e-07
-5.07917e-07
7.94458e-07
-4.41129e-07
8.54283e-07
-4.04151e-07
9.08198e-07
-3.52118e-07
9.55607e-07
-2.74698e-07
1.00785e-06
-1.96377e-07
1.1283e-06
-1.20747e-07
1.36791e-06
-1.20036e-07
1.66123e-06
-2.30014e-07
1.94785e-06
-3.86132e-07
2.21159e-06
-5.09699e-07
2.37723e-06
-3.76797e-07
2.37916e-06
5.85082e-08
2.08065e-06
6.31972e-07
1.15622e-06
1.41799e-06
-1.62322e-07
2.41109e-06
-1.21017e-06
2.96953e-06
-1.86682e-06
2.9181e-06
-2.36979e-06
2.74352e-06
-2.80673e-06
2.59999e-06
-3.22962e-06
2.50624e-06
-3.66368e-06
2.47336e-06
-4.12462e-06
2.48231e-06
-4.62348e-06
2.53076e-06
-5.17579e-06
2.60828e-06
-5.79047e-06
2.70292e-06
-6.46916e-06
2.78442e-06
-7.20142e-06
2.82312e-06
-7.95947e-06
2.78077e-06
-8.68957e-06
2.61017e-06
-9.31886e-06
2.26895e-06
-9.7794e-06
1.7493e-06
-1.00286e-05
1.08372e-06
-1.00528e-05
3.31658e-07
-9.86335e-06
-4.34897e-07
-9.4887e-06
-1.14487e-06
-8.96751e-06
-1.74385e-06
-8.34418e-06
-2.19572e-06
-7.66722e-06
-2.48297e-06
-6.98185e-06
-2.61669e-06
-6.31623e-06
-2.63968e-06
-5.67829e-06
-2.60153e-06
-5.06562e-06
-2.53581e-06
-4.47227e-06
-2.46308e-06
-3.89185e-06
-2.39476e-06
-3.32038e-06
-2.33438e-06