/*--------------------------------*- C++ -*----------------------------------*\
  =========                 |
  \\      /  F ield         | OpenFOAM: The Open Source CFD Toolbox
   \\    /   O peration     | Website:  https://openfoam.org
    \\  /    A nd           | Version:  6
     \\/     M anipulation  |
\*---------------------------------------------------------------------------*/
FoamFile
{
    version     2.0;
    format      ascii;
    class       volScalarField;
    location    "0.15";
    object      s;
}
// * * * * * * * * * * * * * * * * * * * * * * * * * * * * * * * * * * * * * //

dimensions      [0 0 0 0 0 0 0];

internalField   nonuniform List<scalar> 
12225
(
1
1
1
1
1
1
1
1
1
1
1
1
1
1
1
1
1
1
1
1
1
1
1
1
1
1
1
1
1
1
1
1
1
1
1
1
1
1
1
1
1
1
1
1
1
1
1
1
1
1
1
1
1
1
1
1
1
1
1
1
1
1
1
1
1
1
1
1
1
1
1
1
1
1
1
1
1
1
1
1
1
1
1
1
1
1
1
1
1
1
1
1
1
1
1
1
1
1
1
1
1
1
1
1
1
1
1
1
1
1
1
1
1
1
1
1
1
1
1
1
1
1
1
1
1
1
1
1
1
1
1
1
1
1
1
1
1
1
1
1
1
1
1
1
1
1
1
1
1
1
1
1
1
1
1
1
1
1
1
1
1
1
1
1
1
1
1
1
1
1
1
1
1
1
1
1
1
1
1
1
1
1
1
1
1
1
1
1
1
1
1
1
1
1
1
1
1
1
1
1
1
1
1
1
1
1
1
1
1
1
1
1
1
1
1
1
1
1
1
1
1
1
1
1
1
1
1
1
1
1
1
1
1
1
1
1
1
1
1
1
1
1
1
1
1
1
1
1
1
1
1
1
1
1
1
1
1
1
1
1
1
1
1
1
1
1
1
1
1
1
1
1
1
1
1
1
1
1
1
1
1
1
1
1
1
1
1
1
1
1
1
1
1
1
1
1
1
1
1
1
1
1
1
1
1
1
1
1
1
1
1
1
1
1
1
1
1
1
1
1
1
1
1
1
1
1
1
1
1
1
1
1
1
1
1
1
1
1
1
1
1
1
1
1
1
1
1
1
1
1
1
1
1
1
1
1
1
1
1
1
1
1
1
1
1
1
1
1
1
1
1
1
1
1
1
1
1
1
1
1
1
1
1
1
1
1
1
1
1
1
1
1
1
1
1
1
1
1
1
1
1
1
1
1
1
1
1
1
1
1
1
1
1
1
1
1
1
1
1
1
1
1
1
1
1
1
1
1
1
1
1
1
1
1
1
1
1
1
1
1
1
1
1
1
1
1
1
1
1
1
1
1
1
1
1
1
1
1
1
1
1
1
1
1
1
1
1
1
1
1
1
1
1
1
1
1
1
1
1
1
1
1
1
1
1
1
1
1
1
1
1
1
1
1
1
1
1
1
1
1
1
1
1
1
1
1
1
1
1
1
1
1
1
1
1
1
1
1
1
1
1
1
1
1
1
1
1
1
1
1
1
1
1
1
1
1
1
1
1
1
0.85487
0.868437
0.863916
0.8091
0.77142
0.771454
0.785351
0.803032
0.815246
0.826948
0.846642
0.876077
0.885987
0.886407
0.883298
0.876708
0.869495
0.865828
0.864466
0.863984
0.863921
0.864357
0.865726
0.86887
0.87324
0.877978
0.883442
0.889049
0.894297
0.899267
0.903402
0.907242
0.909691
0.913723
0.919026
0.924449
0.92953
0.934128
0.938355
0.940585
0.940906
0.940532
0.939175
0.936697
0.934464
0.932913
0.930062
0.923737
0.913053
0.903459
0.899754
0.898062
0.89709
0.895671
0.892559
0.887152
0.882308
0.88135
0.881825
0.883768
0.886531
0.887716
0.887716
0.888616
0.891797
0.894299
0.895913
0.89685
0.897354
0.897601
0.897827
0.897881
0.897904
0.898787
0.904514
0.922659
0.941652
0.955666
0.963299
0.966104
0.967106
0.968394
0.972016
0.976676
0.979459
0.980487
0.980724
0.980668
0.980241
0.978324
0.97494
0.972991
0.971679
0.970924
0.970653
0.970743
0.971247
0.97215
0.973135
0.97405
0.975083
0.976226
0.977208
0.978051
0.978914
0.979729
0.980494
0.981331
0.982041
0.982377
0.98264
0.982731
0.982753
0.982729
0.982616
0.982472
0.98234
0.982244
0.982141
0.982054
0.981964
0.981897
0.981867
0.981816
0.981439
0.977923
0.979822
0.983428
0.983267
0.982124
0.979764
0.977443
0.971962
0.968706
0.968617
0.972663
0.980568
0.979188
0.978872
0.97886
0.978899
0.979012
0.9792
0.979434
0.979655
0.979801
0.979951
0.980081
0.980128
0.98014
0.980129
0.980156
0.980125
0.980339
0.980765
0.981448
0.982149
0.982918
0.983465
0.983827
0.984107
0.984317
0.984469
0.98458
0.984648
0.984669
0.98465
0.984548
0.984396
0.984269
0.98413
0.983997
0.983861
0.983759
0.98367
0.983627
0.983599
0.983586
0.983559
0.983438
0.856002
0.805373
0.784771
0.786138
0.796345
0.829414
0.84297
0.850621
0.856985
0.865074
0.874484
0.877603
0.877521
0.866419
0.851978
0.84721
0.845521
0.845106
0.845023
0.845358
0.846935
0.850413
0.856782
0.865654
0.87837
0.895584
0.914518
0.928286
0.938119
0.944321
0.948006
0.95024
0.951818
0.952427
0.952511
0.952664
0.953038
0.953959
0.954876
0.954994
0.954493
0.953549
0.951879
0.949753
0.948623
0.945527
0.937576
0.926292
0.917999
0.915255
0.914882
0.915518
0.91671
0.917597
0.919408
0.923165
0.928347
0.932806
0.937097
0.940153
0.941278
0.94136
0.939632
0.934462
0.930614
0.927354
0.924132
0.921444
0.920054
0.92031
0.922522
0.924757
0.925145
0.926227
0.932157
0.942364
0.950488
0.957363
0.961819
0.963911
0.965135
0.967505
0.974265
0.980753
0.983715
0.984627
0.984563
0.983912
0.981084
0.975435
0.973665
0.972996
0.972668
0.972905
0.973545
0.974885
0.976456
0.978373
0.980142
0.982063
0.983919
0.98572
0.987202
0.988758
0.990094
0.991336
0.992054
0.992401
0.992553
0.992657
0.992714
0.992747
0.992759
0.99272
0.992653
0.992529
0.992388
0.992313
0.992281
0.992292
0.992382
0.992547
0.992806
0.993216
0.993637
0.993208
0.993384
0.9933
0.993027
0.992578
0.991673
0.989084
0.981422
0.975811
0.976456
0.979314
0.979746
0.97782
0.977549
0.9778
0.978764
0.979717
0.980346
0.981257
0.98221
0.982898
0.983687
0.984349
0.98464
0.984699
0.983796
0.982869
0.980889
0.979028
0.977722
0.977079
0.97688
0.977271
0.978199
0.979565
0.981062
0.982543
0.983781
0.984623
0.985218
0.985674
0.986036
0.986323
0.986485
0.986541
0.986548
0.986515
0.986382
0.986232
0.986149
0.986146
0.986167
0.986312
0.986345
0.985961
0.833495
0.79307
0.790735
0.80882
0.839197
0.850413
0.856706
0.862358
0.866369
0.869775
0.870894
0.868738
0.85576
0.846331
0.843693
0.843127
0.843066
0.842997
0.842983
0.843394
0.844728
0.848265
0.857134
0.87757
0.912621
0.94298
0.953824
0.957976
0.959784
0.960662
0.961067
0.961277
0.961565
0.961535
0.961367
0.961094
0.96097
0.961122
0.961368
0.96129
0.960746
0.959364
0.956677
0.95275
0.948569
0.944864
0.942672
0.941659
0.942733
0.947393
0.95092
0.952976
0.954449
0.956418
0.95829
0.959019
0.959336
0.959472
0.959481
0.959121
0.958718
0.958586
0.958518
0.956762
0.955602
0.954448
0.95314
0.951893
0.951624
0.952979
0.956396
0.958488
0.959229
0.959632
0.960224
0.96061
0.961325
0.962646
0.963679
0.964947
0.967837
0.975063
0.98099
0.983422
0.984201
0.984438
0.984321
0.982769
0.977054
0.974557
0.974574
0.975923
0.977945
0.979474
0.980904
0.982473
0.984003
0.985423
0.986457
0.987419
0.988363
0.989934
0.991657
0.992828
0.993333
0.993539
0.993583
0.993563
0.993473
0.993445
0.993445
0.993544
0.993664
0.993761
0.993928
0.994005
0.994046
0.993839
0.993562
0.993171
0.992814
0.992672
0.99262
0.992828
0.993518
0.993711
0.993273
0.992642
0.991771
0.992002
0.991927
0.990908
0.986018
0.980048
0.979494
0.979203
0.97774
0.977144
0.978058
0.980124
0.981843
0.982563
0.98299
0.983256
0.983606
0.98428
0.985163
0.986704
0.988264
0.98953
0.99013
0.990523
0.990753
0.989902
0.987158
0.98315
0.979166
0.97682
0.975895
0.975769
0.976188
0.977118
0.978548
0.980483
0.982479
0.98416
0.985421
0.986295
0.986923
0.987299
0.987476
0.987549
0.987583
0.987622
0.987705
0.987905
0.988475
0.989117
0.990244
0.990077
0.833418
0.796269
0.804985
0.839159
0.850747
0.854639
0.857402
0.859997
0.861197
0.861616
0.860386
0.856878
0.853875
0.850564
0.84917
0.848823
0.848433
0.846589
0.84541
0.845165
0.845478
0.849376
0.864646
0.902822
0.947731
0.958175
0.960547
0.961157
0.961284
0.961353
0.961344
0.961302
0.961109
0.960782
0.960573
0.960523
0.960664
0.961165
0.961648
0.962
0.96224
0.962139
0.960987
0.958092
0.956719
0.957002
0.960389
0.962153
0.962764
0.963357
0.963603
0.963666
0.963494
0.963181
0.963107
0.963217
0.963492
0.963914
0.964524
0.964505
0.96379
0.963488
0.963412
0.963327
0.963238
0.96316
0.963037
0.962918
0.962864
0.962975
0.963065
0.963066
0.963106
0.96322
0.963359
0.963552
0.963955
0.965335
0.968232
0.97232
0.976501
0.979919
0.981752
0.982096
0.982029
0.981776
0.98003
0.976056
0.975117
0.975303
0.978554
0.981304
0.982984
0.983972
0.984974
0.985966
0.986895
0.987702
0.988319
0.989754
0.992285
0.993475
0.993924
0.994027
0.993954
0.993489
0.992737
0.991957
0.991531
0.991334
0.991295
0.991668
0.992072
0.992388
0.993219
0.993988
0.994559
0.994943
0.995254
0.995401
0.995283
0.99469
0.993812
0.993036
0.992858
0.992685
0.992464
0.990578
0.987498
0.987904
0.989953
0.98993
0.985102
0.980172
0.979465
0.978414
0.977094
0.977437
0.98013
0.98137
0.981548
0.981231
0.979741
0.978357
0.977776
0.977575
0.977906
0.979905
0.983466
0.987662
0.989714
0.990756
0.99196
0.992824
0.993288
0.993186
0.991628
0.98764
0.982711
0.978975
0.977324
0.976893
0.977111
0.978147
0.979807
0.981854
0.98396
0.985742
0.986963
0.987725
0.988119
0.988271
0.988317
0.988362
0.98848
0.98875
0.989637
0.990271
0.991593
0.992186
0.836555
0.803335
0.82275
0.855148
0.861754
0.86303
0.863121
0.863743
0.865139
0.865483
0.864989
0.862324
0.8582
0.856639
0.857316
0.859927
0.8614
0.859307
0.854715
0.852877
0.851634
0.857942
0.890422
0.940911
0.958313
0.960895
0.961312
0.96137
0.96131
0.961127
0.960814
0.960537
0.960394
0.960124
0.959815
0.959721
0.959923
0.960343
0.960491
0.961484
0.962984
0.963754
0.96419
0.96433
0.964395
0.964425
0.964399
0.963919
0.96355
0.963175
0.963056
0.963073
0.963322
0.964183
0.965905
0.968158
0.969254
0.969336
0.968186
0.965848
0.964436
0.963975
0.963842
0.963832
0.963965
0.964027
0.963937
0.963785
0.963695
0.963701
0.963812
0.963975
0.964598
0.965758
0.967805
0.96986
0.971311
0.972915
0.974213
0.975137
0.976299
0.978976
0.980162
0.979979
0.97878
0.974683
0.973048
0.97404
0.975542
0.978598
0.982539
0.98415
0.985277
0.985985
0.986688
0.987374
0.988057
0.989
0.990888
0.993248
0.99399
0.994132
0.993816
0.993061
0.991588
0.988965
0.986942
0.986117
0.985765
0.985687
0.986092
0.987117
0.988017
0.988834
0.989317
0.990112
0.99133
0.99264
0.994197
0.995446
0.996168
0.996624
0.996814
0.996532
0.99509
0.994072
0.993657
0.990348
0.985547
0.985358
0.986963
0.98783
0.983237
0.97999
0.979036
0.977214
0.976809
0.978531
0.980822
0.981051
0.979987
0.976762
0.973409
0.971427
0.969686
0.968682
0.968415
0.969086
0.972994
0.980366
0.985905
0.988332
0.990528
0.992328
0.993441
0.994202
0.994595
0.994461
0.993365
0.99025
0.98569
0.982209
0.980497
0.979959
0.980143
0.981507
0.983662
0.985653
0.987287
0.988407
0.989032
0.989293
0.989372
0.989427
0.989591
0.989918
0.990807
0.991638
0.992819
0.993404
0.843496
0.805747
0.822233
0.857364
0.866626
0.868388
0.868725
0.868988
0.869638
0.870028
0.870153
0.87137
0.875405
0.881776
0.886704
0.888735
0.888786
0.882843
0.874803
0.8699
0.861828
0.864588
0.909731
0.954256
0.960582
0.961239
0.96135
0.96126
0.960777
0.959817
0.958802
0.958631
0.958328
0.958034
0.957842
0.957623
0.957637
0.958224
0.960024
0.962268
0.964781
0.965452
0.965469
0.964969
0.96408
0.963683
0.963537
0.963485
0.963582
0.96407
0.965307
0.967679
0.971019
0.972827
0.973409
0.97348
0.973004
0.971186
0.968046
0.965439
0.964511
0.964191
0.964117
0.964172
0.964558
0.964743
0.964615
0.964542
0.96485
0.966045
0.968469
0.971545
0.974527
0.97692
0.978299
0.97904
0.97915
0.97887
0.978221
0.977839
0.978122
0.97983
0.979829
0.978094
0.97253
0.970774
0.97223
0.974621
0.977818
0.982655
0.984712
0.985629
0.98637
0.986873
0.98746
0.988076
0.988999
0.990978
0.993456
0.994174
0.99422
0.993659
0.992137
0.988727
0.985634
0.984261
0.983497
0.983138
0.983018
0.983134
0.983995
0.985225
0.986615
0.987934
0.988512
0.988743
0.988963
0.989223
0.989791
0.991038
0.993104
0.995322
0.996757
0.997433
0.997527
0.997278
0.996606
0.990692
0.984614
0.984148
0.985432
0.986079
0.981683
0.979609
0.978057
0.97644
0.976639
0.979641
0.980693
0.980319
0.978152
0.975192
0.972641
0.970125
0.966688
0.964728
0.964188
0.964262
0.967008
0.974287
0.982504
0.986794
0.989468
0.99122
0.992501
0.993776
0.99471
0.995153
0.99526
0.994981
0.993807
0.990953
0.987786
0.985798
0.984891
0.98469
0.985051
0.986752
0.988516
0.989613
0.990178
0.990384
0.990428
0.990466
0.990577
0.990931
0.992087
0.993128
0.994404
0.994932
0.859148
0.812291
0.816976
0.85175
0.86585
0.868968
0.870054
0.870427
0.870606
0.871685
0.876671
0.889416
0.901477
0.907202
0.910298
0.911448
0.911203
0.90899
0.902199
0.894242
0.881577
0.866818
0.908744
0.956938
0.960874
0.96122
0.961288
0.960677
0.958315
0.955564
0.954262
0.954009
0.954474
0.955005
0.955613
0.956287
0.957192
0.958574
0.961355
0.964502
0.965445
0.965475
0.96495
0.964303
0.964017
0.963955
0.964273
0.965267
0.967141
0.970387
0.973214
0.974668
0.975269
0.975495
0.975536
0.975312
0.974303
0.972546
0.970529
0.968479
0.966755
0.965822
0.96542
0.965355
0.965892
0.966703
0.967491
0.968383
0.970118
0.972313
0.974388
0.976373
0.978865
0.981712
0.983195
0.984127
0.984338
0.984246
0.98355
0.982541
0.982166
0.981597
0.97959
0.972861
0.969838
0.970659
0.973106
0.977062
0.982295
0.984928
0.98602
0.986548
0.987039
0.987403
0.987897
0.988622
0.990424
0.993244
0.99422
0.994314
0.993728
0.991795
0.987543
0.984732
0.983507
0.982819
0.982087
0.9817
0.981506
0.981422
0.982009
0.983111
0.984899
0.987378
0.988592
0.989088
0.989174
0.989018
0.988959
0.989072
0.989401
0.990406
0.992912
0.995908
0.997484
0.99782
0.997404
0.991245
0.983737
0.983156
0.984497
0.984685
0.980773
0.97928
0.976818
0.975809
0.976894
0.980045
0.980615
0.980104
0.978235
0.975754
0.973395
0.970072
0.965143
0.961628
0.960759
0.96097
0.964309
0.971274
0.980576
0.986118
0.989179
0.991022
0.992187
0.993004
0.994058
0.995032
0.995472
0.995611
0.995536
0.995003
0.993498
0.991862
0.990868
0.990559
0.990534
0.990685
0.991312
0.991759
0.991913
0.991901
0.991845
0.991823
0.991888
0.992231
0.993416
0.994529
0.995737
0.996284
0.873928
0.83488
0.818526
0.829638
0.852895
0.864462
0.868346
0.869948
0.870362
0.871169
0.874432
0.88724
0.902589
0.909524
0.913205
0.916467
0.920104
0.922825
0.921438
0.908761
0.894597
0.87153
0.908201
0.95815
0.960879
0.961175
0.961294
0.960034
0.956227
0.954058
0.953748
0.953797
0.954169
0.95488
0.955679
0.956662
0.958206
0.961161
0.964336
0.965325
0.965486
0.965325
0.964967
0.964831
0.965296
0.966589
0.968661
0.970921
0.972954
0.974526
0.975572
0.976036
0.976483
0.976795
0.977108
0.97767
0.978044
0.97813
0.977774
0.976616
0.974106
0.970874
0.968457
0.967248
0.966797
0.967276
0.968226
0.969401
0.971019
0.972557
0.97362
0.974229
0.975797
0.978915
0.981308
0.983344
0.984259
0.984332
0.983648
0.982193
0.981824
0.980746
0.975724
0.970429
0.96986
0.971741
0.976234
0.981709
0.984813
0.986182
0.986767
0.987174
0.987525
0.987874
0.988399
0.989489
0.99212
0.994107
0.99442
0.994019
0.992263
0.987821
0.984736
0.983464
0.982833
0.982154
0.981491
0.981217
0.980924
0.98023
0.97969
0.979602
0.98106
0.984348
0.987926
0.989514
0.990107
0.990334
0.989868
0.989243
0.989028
0.989112
0.989551
0.991172
0.995219
0.997379
0.997439
0.992335
0.983475
0.98259
0.983895
0.98362
0.980192
0.978572
0.975827
0.975217
0.976991
0.980158
0.980611
0.980191
0.978648
0.976452
0.973235
0.968141
0.9613
0.958481
0.958059
0.95869
0.961628
0.968159
0.979126
0.985438
0.989055
0.991019
0.992166
0.9929
0.993446
0.994263
0.995186
0.995638
0.995787
0.995787
0.995572
0.99506
0.994663
0.99422
0.993747
0.993353
0.993097
0.992975
0.992938
0.9929
0.992898
0.992928
0.993099
0.993745
0.995251
0.996356
0.997351
0.997715
0.881726
0.867684
0.832241
0.830594
0.835627
0.844978
0.853233
0.861214
0.866682
0.868945
0.870533
0.874323
0.884066
0.893653
0.898371
0.904077
0.909874
0.919889
0.923469
0.920964
0.905491
0.874896
0.92014
0.9594
0.960597
0.961477
0.961899
0.960194
0.95627
0.954782
0.954428
0.954394
0.954833
0.955789
0.957097
0.959278
0.962249
0.964505
0.965352
0.965594
0.965682
0.965723
0.966148
0.967743
0.969521
0.971244
0.972376
0.973564
0.974627
0.975495
0.97617
0.976769
0.977578
0.978504
0.979282
0.97962
0.979721
0.979711
0.979637
0.979456
0.978943
0.978066
0.976525
0.973949
0.971015
0.968766
0.968069
0.968125
0.968562
0.968693
0.968359
0.967463
0.966675
0.967448
0.970347
0.975778
0.980138
0.981215
0.980015
0.975383
0.974634
0.975146
0.973212
0.970112
0.9709
0.975357
0.980876
0.984326
0.985993
0.986716
0.987095
0.987479
0.987815
0.988289
0.989036
0.990715
0.993493
0.994384
0.994343
0.993096
0.98936
0.98521
0.983677
0.983025
0.98261
0.981975
0.981538
0.981356
0.981047
0.980223
0.9788
0.977281
0.976777
0.978352
0.983474
0.987999
0.989943
0.990721
0.990998
0.990852
0.990025
0.989245
0.989153
0.98945
0.990924
0.995373
0.997167
0.99483
0.983762
0.982295
0.983406
0.982844
0.979918
0.978058
0.975089
0.974607
0.976837
0.980115
0.980611
0.980344
0.979033
0.976369
0.971481
0.963689
0.958521
0.957226
0.957103
0.957737
0.960136
0.966023
0.977447
0.984658
0.988927
0.991292
0.992352
0.992984
0.9934
0.993774
0.994344
0.995163
0.995673
0.995863
0.995894
0.995865
0.995747
0.995393
0.99465
0.993984
0.993549
0.993353
0.993302
0.993308
0.993358
0.993538
0.994052
0.995271
0.99663
0.997612
0.998476
0.998782
0.881961
0.879861
0.869233
0.853139
0.845246
0.846609
0.84931
0.853565
0.858596
0.862986
0.866077
0.868687
0.870621
0.872523
0.878125
0.893179
0.902504
0.911189
0.919881
0.921085
0.910027
0.879258
0.934631
0.95951
0.96029
0.96235
0.963354
0.962639
0.960111
0.958117
0.957437
0.957285
0.958071
0.959636
0.961206
0.963211
0.964737
0.965487
0.965834
0.966159
0.966569
0.967763
0.96945
0.970925
0.97185
0.972803
0.97342
0.974261
0.975231
0.976273
0.97732
0.978707
0.979369
0.979501
0.979437
0.97886
0.978038
0.977264
0.976899
0.976838
0.977459
0.978236
0.978703
0.978982
0.97876
0.977295
0.974022
0.970624
0.968673
0.967817
0.966973
0.966056
0.964809
0.963991
0.963877
0.96525
0.97072
0.975845
0.976196
0.972884
0.967916
0.968326
0.97075
0.970651
0.973814
0.978865
0.983428
0.985623
0.98653
0.986894
0.987231
0.987578
0.987903
0.988496
0.989546
0.99191
0.994189
0.994602
0.994106
0.991763
0.986439
0.984121
0.983306
0.982941
0.982506
0.981909
0.981582
0.981414
0.981149
0.980358
0.978662
0.975823
0.973703
0.972969
0.974851
0.981867
0.98678
0.98937
0.990709
0.991239
0.991289
0.990719
0.989572
0.989327
0.989625
0.99169
0.996311
0.995996
0.984825
0.98215
0.982919
0.982166
0.979767
0.977439
0.974186
0.973815
0.976323
0.979936
0.980578
0.980409
0.97923
0.976165
0.969906
0.962778
0.958092
0.956912
0.956803
0.957253
0.958876
0.964254
0.97528
0.983412
0.988543
0.991366
0.99285
0.99338
0.993583
0.993774
0.994014
0.994369
0.995003
0.995559
0.995806
0.995861
0.995824
0.995593
0.994855
0.994133
0.993708
0.993526
0.993498
0.993529
0.99369
0.994198
0.995585
0.997123
0.998283
0.998983
0.999412
0.99957
0.87666
0.884036
0.880832
0.877505
0.877146
0.877011
0.876658
0.875634
0.874521
0.87411
0.874174
0.874503
0.875229
0.876543
0.879362
0.888267
0.899045
0.907196
0.917275
0.920052
0.908838
0.881762
0.946115
0.959174
0.960046
0.962971
0.964387
0.964336
0.963395
0.962422
0.962079
0.962019
0.962688
0.963467
0.964134
0.965202
0.965908
0.966319
0.966935
0.967666
0.968734
0.969961
0.970979
0.971766
0.972486
0.973185
0.973932
0.975068
0.976813
0.978494
0.978983
0.979069
0.978758
0.977363
0.974584
0.971374
0.969479
0.96852
0.968057
0.967871
0.968019
0.968795
0.970758
0.974
0.978059
0.98024
0.98124
0.980868
0.977811
0.973439
0.969658
0.967541
0.965768
0.964225
0.963327
0.963186
0.963959
0.968681
0.97347
0.972629
0.967101
0.965476
0.968118
0.970331
0.975048
0.981226
0.984527
0.98596
0.986712
0.987074
0.987452
0.987717
0.987963
0.988532
0.989845
0.992738
0.994634
0.994773
0.993562
0.989174
0.984942
0.983625
0.983117
0.98273
0.982116
0.981284
0.980956
0.980902
0.980845
0.980169
0.978036
0.974256
0.970139
0.967861
0.967197
0.970216
0.977781
0.983183
0.987199
0.98983
0.991128
0.99147
0.991016
0.989797
0.989529
0.989994
0.994399
0.996088
0.985888
0.982096
0.982461
0.981667
0.979674
0.9772
0.973526
0.972909
0.975088
0.97945
0.980456
0.980388
0.979305
0.975823
0.969826
0.965124
0.958772
0.95695
0.956764
0.957102
0.958308
0.962372
0.972419
0.981658
0.98802
0.991344
0.993264
0.994051
0.994115
0.994078
0.994085
0.994202
0.994412
0.994784
0.99522
0.995449
0.995487
0.995386
0.994836
0.994137
0.993788
0.993703
0.993729
0.993886
0.994386
0.995708
0.997277
0.998482
0.999223
0.999585
0.999775
0.999847
0.880515
0.895393
0.900242
0.901911
0.901697
0.901143
0.900048
0.899723
0.899761
0.899744
0.899389
0.898269
0.89724
0.897137
0.897347
0.89858
0.900746
0.905154
0.91589
0.919097
0.902652
0.891817
0.954271
0.958404
0.95913
0.962778
0.96482
0.965082
0.964995
0.964706
0.964604
0.964637
0.96502
0.965339
0.965696
0.966358
0.966847
0.967377
0.968158
0.968973
0.969816
0.970589
0.971276
0.971956
0.972793
0.973751
0.975179
0.977465
0.97835
0.978547
0.978289
0.976533
0.972464
0.968381
0.966978
0.966554
0.96644
0.966461
0.966499
0.966318
0.965988
0.965381
0.964536
0.963877
0.964445
0.969924
0.978005
0.982279
0.983795
0.983707
0.981027
0.975887
0.971115
0.967687
0.965046
0.963517
0.963247
0.964141
0.968952
0.971641
0.968768
0.964459
0.965314
0.969044
0.974678
0.981286
0.984867
0.986439
0.986879
0.987446
0.988023
0.988098
0.988146
0.988573
0.989985
0.993249
0.994869
0.994817
0.992956
0.987926
0.98441
0.983254
0.982765
0.982114
0.980658
0.978902
0.978493
0.979799
0.979903
0.979193
0.976394
0.971862
0.969062
0.96545
0.962399
0.961344
0.963688
0.969382
0.976283
0.983163
0.988112
0.990786
0.99144
0.990992
0.98983
0.98975
0.991822
0.995779
0.986725
0.982005
0.981986
0.981285
0.979697
0.976926
0.972757
0.972004
0.973293
0.978204
0.980072
0.980184
0.979227
0.975296
0.971201
0.968526
0.960937
0.957505
0.956938
0.957113
0.958121
0.9609
0.969269
0.980175
0.987841
0.991611
0.993642
0.994845
0.994976
0.994849
0.994577
0.9944
0.994379
0.994467
0.994587
0.994685
0.994707
0.994655
0.994386
0.994026
0.993906
0.993931
0.994098
0.994628
0.996011
0.997617
0.998757
0.99938
0.999699
0.999847
0.999917
0.999942
0.900246
0.902562
0.901032
0.897658
0.893085
0.888721
0.884376
0.882586
0.881919
0.882429
0.883629
0.885862
0.887909
0.889136
0.889153
0.888169
0.887942
0.897936
0.916416
0.917447
0.889781
0.91276
0.954717
0.95666
0.956915
0.961532
0.964602
0.965197
0.965391
0.96546
0.965505
0.965629
0.965859
0.966041
0.966322
0.966836
0.967353
0.967951
0.968697
0.96942
0.970092
0.970726
0.971434
0.972267
0.973512
0.975482
0.977444
0.978065
0.978105
0.977167
0.973847
0.968988
0.967112
0.966515
0.966438
0.966665
0.96711
0.967826
0.96892
0.970174
0.970785
0.970541
0.968367
0.964843
0.961334
0.958881
0.959809
0.970467
0.980667
0.98476
0.985794
0.985486
0.98281
0.977263
0.97143
0.966978
0.964403
0.96397
0.965582
0.970014
0.97004
0.965277
0.963973
0.966113
0.973065
0.980719
0.984688
0.986419
0.987377
0.988391
0.989358
0.989248
0.988726
0.988811
0.990047
0.99348
0.995114
0.994886
0.992435
0.987142
0.98373
0.982796
0.981903
0.980062
0.976057
0.974375
0.975545
0.978607
0.97909
0.977988
0.973793
0.970728
0.969099
0.965667
0.961722
0.95934
0.958557
0.95935
0.96164
0.967446
0.977558
0.986064
0.990355
0.991294
0.990716
0.989826
0.990338
0.994749
0.988095
0.981995
0.981663
0.980892
0.979767
0.976971
0.972219
0.971014
0.97159
0.974843
0.978819
0.97943
0.978511
0.974941
0.972007
0.969989
0.963813
0.959001
0.957563
0.95757
0.958139
0.960403
0.967416
0.979438
0.987854
0.992471
0.994565
0.995895
0.996181
0.996065
0.995684
0.995138
0.994733
0.994541
0.99449
0.99446
0.994392
0.994237
0.994069
0.99399
0.99402
0.994191
0.994749
0.996203
0.997809
0.998902
0.999481
0.999762
0.99989
0.999943
0.999963
0.999967
0.902534
0.898058
0.886863
0.872281
0.858482
0.849583
0.841545
0.841102
0.843222
0.848832
0.860047
0.867824
0.870682
0.871672
0.873986
0.877759
0.887547
0.910141
0.917919
0.905889
0.891971
0.936394
0.953287
0.952519
0.952089
0.958299
0.963448
0.964765
0.965267
0.965478
0.965597
0.965757
0.965968
0.966135
0.966386
0.96684
0.967374
0.968026
0.968779
0.969509
0.970208
0.970922
0.971823
0.973148
0.975799
0.97746
0.977972
0.977769
0.976512
0.972256
0.968473
0.96706
0.966696
0.966655
0.966812
0.96699
0.967244
0.967817
0.969075
0.971369
0.973941
0.976478
0.978553
0.977997
0.972156
0.96231
0.955193
0.95338
0.962054
0.977657
0.984708
0.986735
0.987019
0.98617
0.982815
0.975846
0.969311
0.965899
0.965645
0.968306
0.970173
0.967774
0.963777
0.964171
0.969198
0.979058
0.984065
0.98624
0.987305
0.989408
0.990866
0.990819
0.990252
0.989582
0.990357
0.993551
0.995271
0.995025
0.992523
0.986609
0.983304
0.981686
0.979664
0.975308
0.972133
0.971229
0.973734
0.977903
0.978598
0.976529
0.972228
0.970803
0.970203
0.968249
0.964117
0.960244
0.958421
0.958103
0.958346
0.959042
0.961821
0.972376
0.984613
0.990167
0.991043
0.990287
0.990046
0.993262
0.990868
0.982152
0.981325
0.980598
0.979797
0.97717
0.971908
0.970267
0.970273
0.971576
0.975033
0.976965
0.976141
0.973784
0.971911
0.970331
0.966166
0.960641
0.958431
0.958235
0.958622
0.960326
0.966575
0.979162
0.988443
0.993611
0.99588
0.997188
0.997701
0.997626
0.997333
0.996616
0.995747
0.995086
0.994721
0.994537
0.994382
0.994199
0.994109
0.994127
0.994266
0.994779
0.996252
0.997951
0.999017
0.999553
0.999806
0.999916
0.999959
0.999973
0.999973
0.99997
0.901698
0.878595
0.844088
0.826787
0.818891
0.815047
0.814396
0.815708
0.820068
0.832332
0.846378
0.859127
0.865739
0.867238
0.869549
0.88222
0.905245
0.916832
0.909929
0.89655
0.901351
0.944055
0.950303
0.946841
0.945959
0.951208
0.959419
0.962634
0.964137
0.964995
0.96534
0.965587
0.965855
0.966046
0.966307
0.966708
0.967247
0.967934
0.968737
0.969583
0.970452
0.971469
0.973133
0.975765
0.977563
0.978119
0.977835
0.976584
0.972383
0.96875
0.967281
0.966832
0.966729
0.966698
0.966502
0.96642
0.966511
0.966972
0.968132
0.971021
0.974561
0.97788
0.981511
0.98477
0.98575
0.982126
0.966085
0.952179
0.948996
0.956395
0.97559
0.984658
0.987337
0.987814
0.987454
0.985655
0.979411
0.971516
0.968124
0.968306
0.97023
0.969783
0.965114
0.963576
0.965431
0.974832
0.982558
0.985731
0.987029
0.989343
0.991967
0.992369
0.99205
0.991092
0.991271
0.993581
0.995374
0.995234
0.992859
0.986782
0.982207
0.979984
0.976081
0.971935
0.970046
0.969859
0.972485
0.977428
0.977945
0.974723
0.972026
0.971831
0.973903
0.975235
0.972602
0.967078
0.962823
0.961002
0.96003
0.959003
0.958434
0.959793
0.969829
0.98462
0.990259
0.99067
0.990079
0.991815
0.992782
0.983291
0.980951
0.980284
0.979783
0.977602
0.972054
0.969628
0.969152
0.969498
0.970813
0.973161
0.972966
0.972116
0.971076
0.970049
0.967588
0.962134
0.959394
0.958938
0.959219
0.960663
0.966373
0.979622
0.989379
0.994844
0.997281
0.998479
0.999086
0.999127
0.99902
0.998646
0.997607
0.996389
0.995562
0.995033
0.994661
0.994521
0.994519
0.994604
0.99501
0.996305
0.998074
0.999113
0.999612
0.999839
0.999934
0.99997
0.99998
0.999979
0.999973
0.999957
0.886878
0.840229
0.821486
0.814745
0.811843
0.810964
0.811396
0.814056
0.823952
0.836047
0.844717
0.850603
0.857741
0.866996
0.87877
0.906159
0.915679
0.911103
0.899225
0.898719
0.921207
0.941104
0.942401
0.938995
0.939006
0.944182
0.950402
0.957316
0.960911
0.96307
0.964408
0.964934
0.96544
0.965764
0.966093
0.966496
0.967012
0.967792
0.968728
0.969835
0.971205
0.973447
0.976286
0.977938
0.978468
0.978133
0.977261
0.973758
0.969661
0.967734
0.967023
0.966806
0.966743
0.966581
0.966286
0.966308
0.966512
0.967128
0.968518
0.972
0.977456
0.981298
0.984658
0.988115
0.990781
0.991594
0.988034
0.966039
0.948513
0.945887
0.954089
0.975553
0.98531
0.988016
0.988437
0.988209
0.986947
0.981626
0.973819
0.970944
0.970996
0.971018
0.968217
0.963902
0.963979
0.968183
0.979344
0.984566
0.986391
0.989039
0.992012
0.99361
0.993522
0.992878
0.99269
0.993801
0.995471
0.995452
0.993565
0.98747
0.981899
0.97803
0.973584
0.970348
0.969213
0.969501
0.971952
0.977098
0.976914
0.973924
0.972482
0.974862
0.981225
0.986039
0.986931
0.983112
0.976458
0.972589
0.970445
0.967053
0.961522
0.958456
0.959603
0.970719
0.986021
0.990357
0.990279
0.990663
0.993062
0.985628
0.981031
0.980141
0.979742
0.978093
0.972591
0.96944
0.968239
0.968146
0.968453
0.969705
0.970461
0.970331
0.970052
0.96955
0.968059
0.963426
0.960348
0.959772
0.960047
0.961573
0.967361
0.980841
0.990704
0.996093
0.998485
0.999318
0.999635
0.999714
0.999698
0.99962
0.999354
0.998453
0.997126
0.996153
0.995643
0.995471
0.995474
0.995686
0.996653
0.998397
0.999262
0.999679
0.999869
0.999948
0.999978
0.999986
0.999985
0.999978
0.999949
0.999883
0.878102
0.831566
0.81911
0.81407
0.811661
0.811134
0.812585
0.817208
0.824755
0.83373
0.842592
0.851769
0.861795
0.879695
0.905868
0.914073
0.911489
0.900041
0.898315
0.907303
0.926197
0.930594
0.928499
0.927544
0.930717
0.938183
0.942508
0.94969
0.956045
0.959859
0.962798
0.9642
0.965055
0.96561
0.96599
0.966452
0.966961
0.967824
0.968977
0.97072
0.973488
0.976494
0.978461
0.979178
0.978853
0.978016
0.975778
0.971505
0.968601
0.967355
0.966911
0.96677
0.96668
0.966485
0.966456
0.966726
0.967623
0.969477
0.972707
0.978567
0.985603
0.990107
0.993344
0.995808
0.996749
0.996752
0.995812
0.985765
0.956815
0.944719
0.944505
0.956488
0.978402
0.986879
0.988813
0.988965
0.988713
0.987551
0.982579
0.976096
0.973686
0.973022
0.971401
0.965637
0.963767
0.965101
0.973109
0.982016
0.985205
0.988364
0.991774
0.993903
0.994651
0.994384
0.994072
0.994428
0.995593
0.995649
0.994398
0.98889
0.982256
0.977887
0.973326
0.970252
0.969215
0.969491
0.972088
0.976566
0.976312
0.973868
0.974416
0.980632
0.986998
0.989737
0.992117
0.99329
0.992552
0.990999
0.989792
0.987098
0.978132
0.964121
0.959052
0.960957
0.975115
0.98804
0.990245
0.990313
0.992495
0.989737
0.981574
0.980162
0.979751
0.978497
0.973476
0.969593
0.967761
0.967255
0.967257
0.967634
0.968624
0.969187
0.96919
0.96902
0.968075
0.964232
0.961209
0.960683
0.960981
0.962601
0.968944
0.982616
0.992239
0.997065
0.999003
0.999628
0.999833
0.999897
0.999901
0.999887
0.999832
0.999648
0.999015
0.998019
0.997346
0.997095
0.997118
0.997533
0.998751
0.999434
0.99975
0.999897
0.99996
0.999984
0.99999
0.99999
0.999984
0.999957
0.999863
0.999651
0.875252
0.831518
0.82223
0.818431
0.814699
0.813681
0.815778
0.821301
0.827516
0.836022
0.846422
0.860171
0.88251
0.906172
0.91297
0.912035
0.901813
0.897758
0.899213
0.912476
0.919734
0.919378
0.917039
0.916122
0.917983
0.926517
0.935642
0.943323
0.951423
0.95665
0.960866
0.963569
0.964904
0.965719
0.966124
0.966673
0.967211
0.968252
0.969948
0.972948
0.976142
0.9786
0.979777
0.97986
0.979251
0.977892
0.974411
0.970577
0.968468
0.967368
0.966923
0.966718
0.966449
0.966534
0.967091
0.968694
0.971959
0.976121
0.982937
0.989926
0.994941
0.997151
0.998234
0.998916
0.999313
0.999357
0.998955
0.994196
0.969425
0.94808
0.943543
0.946482
0.965825
0.983635
0.989065
0.989724
0.989494
0.988936
0.987487
0.982189
0.977505
0.975922
0.97439
0.969055
0.964325
0.964221
0.967471
0.978124
0.983471
0.987081
0.991174
0.993776
0.995033
0.995327
0.995181
0.995253
0.995824
0.995868
0.995084
0.991393
0.983339
0.978244
0.973619
0.970465
0.969453
0.969752
0.972255
0.976366
0.975994
0.974295
0.977788
0.986063
0.988483
0.990186
0.992672