/*--------------------------------*- C++ -*----------------------------------*\
  =========                 |
  \\      /  F ield         | OpenFOAM: The Open Source CFD Toolbox
   \\    /   O peration     | Website:  https://openfoam.org
    \\  /    A nd           | Version:  6
     \\/     M anipulation  |
\*---------------------------------------------------------------------------*/
FoamFile
{
    version     2.0;
    format      ascii;
    class       volScalarField;
    location    "0.15";
    object      s_0;
}
// * * * * * * * * * * * * * * * * * * * * * * * * * * * * * * * * * * * * * //

dimensions      [0 0 0 0 0 0 0];

internalField   nonuniform List<scalar> 
12225
(
1
1
1
1
1
1
1
1
1
1
1
1
1
1
1
1
1
1
1
1
1
1
1
1
1
1
1
1
1
1
1
1
1
1
1
1
1
1
1
1
1
1
1
1
1
1
1
1
1
1
1
1
1
1
1
1
1
1
1
1
1
1
1
1
1
1
1
1
1
1
1
1
1
1
1
1
1
1
1
1
1
1
1
1
1
1
1
1
1
1
1
1
1
1
1
1
1
1
1
1
1
1
1
1
1
1
1
1
1
1
1
1
1
1
1
1
1
1
1
1
1
1
1
1
1
1
1
1
1
1
1
1
1
1
1
1
1
1
1
1
1
1
1
1
1
1
1
1
1
1
1
1
1
1
1
1
1
1
1
1
1
1
1
1
1
1
1
1
1
1
1
1
1
1
1
1
1
1
1
1
1
1
1
1
1
1
1
1
1
1
1
1
1
1
1
1
1
1
1
1
1
1
1
1
1
1
1
1
1
1
1
1
1
1
1
1
1
1
1
1
1
1
1
1
1
1
1
1
1
1
1
1
1
1
1
1
1
1
1
1
1
1
1
1
1
1
1
1
1
1
1
1
1
1
1
1
1
1
1
1
1
1
1
1
1
1
1
1
1
1
1
1
1
1
1
1
1
1
1
1
1
1
1
1
1
1
1
1
1
1
1
1
1
1
1
1
1
1
1
1
1
1
1
1
1
1
1
1
1
1
1
1
1
1
1
1
1
1
1
1
1
1
1
1
1
1
1
1
1
1
1
1
1
1
1
1
1
1
1
1
1
1
1
1
1
1
1
1
1
1
1
1
1
1
1
1
1
1
1
1
1
1
1
1
1
1
1
1
1
1
1
1
1
1
1
1
1
1
1
1
1
1
1
1
1
1
1
1
1
1
1
1
1
1
1
1
1
1
1
1
1
1
1
1
1
1
1
1
1
1
1
1
1
1
1
1
1
1
1
1
1
1
1
1
1
1
1
1
1
1
1
1
1
1
1
1
1
1
1
1
1
1
1
1
1
1
1
1
1
1
1
1
1
1
1
1
1
1
1
1
1
1
1
1
1
1
1
1
1
1
1
1
1
1
1
1
1
1
1
1
1
1
1
1
1
1
1
1
1
1
1
1
1
1
1
1
1
1
1
1
1
1
1
1
1
1
1
1
1
1
1
1
1
1
1
1
1
1
1
1
1
1
1
1
1
1
1
1
1
1
1
1
1
1
1
1
1
1
1
1
0.854869
0.868488
0.863903
0.808981
0.771395
0.771449
0.78533
0.803
0.815207
0.826874
0.846444
0.875902
0.885977
0.886431
0.883377
0.876824
0.869599
0.865879
0.8645
0.864011
0.863945
0.864372
0.865728
0.868855
0.873217
0.877952
0.883414
0.889027
0.894284
0.899257
0.903401
0.90725
0.909713
0.913752
0.919056
0.924474
0.929547
0.934137
0.938357
0.940584
0.940906
0.940536
0.939187
0.936714
0.93448
0.932936
0.930118
0.923854
0.913223
0.903553
0.899798
0.898087
0.897113
0.895715
0.892641
0.88727
0.882325
0.881312
0.881747
0.88365
0.886407
0.887615
0.887625
0.888554
0.891754
0.894271
0.895895
0.896835
0.897341
0.897587
0.89781
0.897861
0.897889
0.898802
0.90465
0.922953
0.941893
0.955827
0.963376
0.966134
0.967125
0.968425
0.972089
0.976734
0.979488
0.980497
0.980726
0.980666
0.980231
0.978286
0.974905
0.972974
0.971673
0.970925
0.970653
0.970738
0.971232
0.972123
0.973102
0.974009
0.975029
0.976167
0.977152
0.977994
0.978854
0.979671
0.980434
0.981268
0.981987
0.982326
0.982594
0.982688
0.982711
0.98269
0.982579
0.982437
0.982306
0.982209
0.982105
0.982017
0.981925
0.981856
0.981824
0.981773
0.981401
0.977897
0.979782
0.983382
0.983221
0.982078
0.979727
0.977395
0.971902
0.968687
0.96861
0.97274
0.980608
0.979206
0.978873
0.978858
0.978893
0.978999
0.979182
0.979414
0.979636
0.979783
0.979929
0.980062
0.980109
0.980122
0.980112
0.980146
0.98012
0.980341
0.980773
0.981461
0.982166
0.982933
0.983473
0.983833
0.984112
0.98432
0.984471
0.984581
0.984647
0.984667
0.984646
0.984541
0.984389
0.984262
0.984123
0.983989
0.983854
0.983753
0.983666
0.983624
0.983596
0.983584
0.983556
0.983436
0.856036
0.805452
0.784768
0.786094
0.796254
0.829361
0.842961
0.850613
0.856957
0.864991
0.874444
0.877608
0.877567
0.866614
0.852067
0.847245
0.845536
0.845114
0.845029
0.845357
0.846924
0.850389
0.856739
0.865591
0.878269
0.895442
0.914399
0.928206
0.93807
0.944297
0.947997
0.950242
0.951829
0.952452
0.952547
0.952707
0.953083
0.954002
0.954914
0.955029
0.954529
0.953588
0.951922
0.949794
0.94867
0.94562
0.937735
0.92648
0.918107
0.915315
0.914926
0.915545
0.916724
0.917589
0.919348
0.923042
0.928188
0.932632
0.936923
0.940015
0.941166
0.941251
0.939521
0.934337
0.930488
0.927236
0.924024
0.921352
0.919977
0.92024
0.922457
0.924664
0.925059
0.926185
0.932255
0.942477
0.950606
0.957462
0.961879
0.963944
0.96517
0.967571
0.974401
0.980832
0.983748
0.984635
0.984565
0.9839
0.981009
0.975386
0.973658
0.973001
0.972686
0.972934
0.973573
0.974911
0.976471
0.97838
0.980141
0.982051
0.983899
0.985701
0.987181
0.988727
0.990054
0.991295
0.992025
0.992382
0.992538
0.992644
0.992702
0.992735
0.992747
0.992707
0.992638
0.992514
0.992375
0.992302
0.99227
0.992284
0.992376
0.992543
0.992804
0.993216
0.993638
0.993205
0.993385
0.993302
0.993026
0.992567
0.99165
0.989036
0.981334
0.975769
0.97648
0.979348
0.979772
0.9778
0.977512
0.977739
0.978685
0.979658
0.980286
0.981176
0.982134
0.982825
0.983608
0.98427
0.984563
0.984621
0.98371
0.982782
0.980806
0.978955
0.977684
0.977053
0.976871
0.977276
0.978223
0.979598
0.9811
0.982581
0.98381
0.984642
0.985232
0.985684
0.986043
0.986327
0.986484
0.986538
0.986543
0.986508
0.986371
0.986223
0.986143
0.986141
0.986163
0.986311
0.986341
0.985956
0.833592
0.793083
0.790701
0.808683
0.839104
0.85035
0.856652
0.862312
0.866322
0.869749
0.870882
0.868801
0.855918
0.846379
0.843705
0.843125
0.843061
0.842991
0.842976
0.843384
0.844713
0.848238
0.857077
0.877445
0.912416
0.94288
0.953791
0.957965
0.959782
0.960662
0.961068
0.961279
0.961567
0.961539
0.961373
0.961103
0.960981
0.961134
0.96138
0.961305
0.960769
0.959402
0.956735
0.952822
0.948628
0.944912
0.94274
0.941732
0.94277
0.947385
0.950923
0.952983
0.954439
0.956379
0.95826
0.959001
0.959317
0.959451
0.959452
0.959076
0.958658
0.95852
0.958458
0.956685
0.955515
0.954357
0.953049
0.951805
0.951547
0.952932
0.956374
0.95847
0.959214
0.959625
0.960219
0.960608
0.961335
0.96266
0.963695
0.964977
0.967911
0.975184
0.981058
0.983451
0.984213
0.98444
0.984314
0.982708
0.976964
0.974545
0.974594
0.975986
0.978012
0.979535
0.98095
0.982496
0.984018
0.985434
0.986465
0.987422
0.988351
0.989886
0.991595
0.992797
0.993319
0.993537
0.993585
0.99357
0.993483
0.993455
0.993454
0.99355
0.993669
0.993764
0.993927
0.994002
0.994037
0.993825
0.993543
0.99315
0.992798
0.992661
0.992612
0.992824
0.993525
0.993719
0.99328
0.992667
0.991799
0.992016
0.991924
0.990879
0.985923
0.980011
0.979515
0.979232
0.977728
0.977102
0.977993
0.980046
0.981805
0.982535
0.982967
0.983235
0.983584
0.984257
0.98513
0.986664
0.988232
0.989508
0.990115
0.990499
0.990713
0.989825
0.987029
0.983007
0.979048
0.976764
0.975865
0.975757
0.976194
0.977136
0.978588
0.980538
0.982533
0.984204
0.985452
0.986315
0.986935
0.987303
0.987475
0.987546
0.987579
0.987619
0.987705
0.987912
0.988496
0.989148
0.990263
0.99009
0.833509
0.796277
0.804887
0.839107
0.850741
0.85463
0.857372
0.859961
0.861163
0.861589
0.860387
0.856896
0.853911
0.850599
0.849173
0.848811
0.848412
0.846568
0.845386
0.845138
0.845451
0.849329
0.864526
0.902599
0.947641
0.958159
0.960543
0.961157
0.961284
0.961354
0.961345
0.961302
0.961106
0.960777
0.960568
0.960517
0.96066
0.961165
0.961647
0.961999
0.962248
0.962162
0.961043
0.958177
0.956786
0.957049
0.9604
0.962184
0.962791
0.963377
0.963621
0.963684
0.963514
0.963192
0.963107
0.963206
0.963466
0.96386
0.964477
0.964488
0.963789
0.963482
0.963406
0.963321
0.963229
0.963151
0.963028
0.962911
0.962858
0.962971
0.96306
0.96306
0.963096
0.963208
0.963346
0.963537
0.963944
0.965344
0.968256
0.972361
0.976552
0.979958
0.981773
0.982105
0.982034
0.981763
0.979929
0.975975
0.975102
0.975319
0.978627
0.981351
0.983028
0.984008
0.984998
0.985979
0.9869
0.987707
0.988317
0.989711
0.992227
0.993463
0.993927
0.994038
0.993977
0.993536
0.992794
0.992017
0.991589
0.991392
0.991348
0.991708
0.992116
0.992423
0.993248
0.994008
0.994571
0.994952
0.995256
0.9954
0.995263
0.994657
0.993769
0.992997
0.992841
0.992675
0.992451
0.990549
0.987517
0.987935
0.989966
0.989915
0.985016
0.980166
0.979484
0.978416
0.977056
0.977377
0.980058
0.981363
0.981548
0.981265
0.979826
0.97844
0.97786
0.97766
0.977974
0.979938
0.983456
0.987656
0.989724
0.990765
0.99196
0.992819
0.993282
0.99315
0.991533
0.987471
0.982547
0.978873
0.977271
0.976868
0.977107
0.978171
0.979843
0.981904
0.984009
0.98578
0.986987
0.987736
0.988121
0.988267
0.988312
0.988358
0.988482
0.988761
0.989667
0.990304
0.991629
0.992221
0.836647
0.803332
0.822622
0.855125
0.861781
0.863068
0.863159
0.863758
0.865159
0.86551
0.86503
0.862386
0.858241
0.856634
0.857279
0.859858
0.861329
0.859243
0.854649
0.852808
0.851572
0.85786
0.890184
0.940756
0.958296
0.960894
0.961312
0.96137
0.961311
0.961128
0.960815
0.960535
0.96039
0.960118
0.959806
0.959711
0.959912
0.960326
0.960474
0.961467
0.962982
0.963759
0.964206
0.964354
0.964421
0.96445
0.964419
0.963937
0.963566
0.963183
0.963052
0.963065
0.963298
0.964133
0.965824
0.96806
0.969221
0.969335
0.968242
0.965917
0.964457
0.963977
0.963838
0.963826
0.963955
0.96402
0.963932
0.963781
0.963688
0.963691
0.963797
0.963949
0.964556
0.965705
0.967756
0.969817
0.971278
0.972895
0.974206
0.975141
0.97632
0.979007
0.980175
0.979983
0.978748
0.974592
0.973007
0.974039
0.975552
0.978684
0.982586
0.98418
0.985297
0.986001
0.986697
0.987377
0.988054
0.988985
0.99084
0.993236
0.993997
0.99415
0.993849
0.993104
0.991673
0.989102
0.987027
0.986184
0.985819
0.985733
0.986107
0.987121
0.988019
0.988833
0.989327
0.990135
0.991371
0.992687
0.994244
0.995472
0.996188
0.996631
0.996815
0.996503
0.995028
0.994017
0.993593
0.990283
0.985536
0.985364
0.986979
0.987815
0.983178
0.97999
0.979047
0.977176
0.976751
0.978456
0.98081
0.981061
0.980069
0.976919
0.973562
0.97155
0.969821
0.968794
0.968515
0.969143
0.972985
0.980317
0.985915
0.98835
0.990543
0.992348
0.993454
0.994207
0.994591
0.994438
0.993293
0.99009
0.985521
0.982097
0.980429
0.979921
0.980131
0.981545
0.983707
0.985695
0.987316
0.988422
0.989035
0.989288
0.989364
0.989421
0.989594
0.98993
0.990837
0.991671
0.992848
0.993437
0.843597
0.805764
0.822126
0.857308
0.866627
0.868405
0.868744
0.869001
0.869645
0.870038
0.870164
0.871371
0.875377
0.881698
0.8866
0.888619
0.888669
0.882722
0.87467
0.869772
0.861726
0.864552
0.909734
0.954236
0.960582
0.96124
0.96135
0.961262
0.960782
0.959827
0.958808
0.958628
0.958316
0.958016
0.957823
0.957604
0.957616
0.958197
0.959996
0.962244
0.964775
0.965461
0.965481
0.96499
0.964095
0.963684
0.963532
0.963479
0.963569
0.964049
0.965262
0.9676
0.970927
0.972799
0.973401
0.973481
0.97304
0.971272
0.968158
0.965474
0.964512
0.96418
0.964103
0.964155
0.964536
0.964722
0.964592
0.964512
0.964801
0.965963
0.968363
0.971436
0.974425
0.976823
0.978212
0.978961
0.979078
0.978804
0.978167
0.977799
0.978101
0.979837
0.979831
0.978053
0.97245
0.970751
0.972239
0.97464
0.977906
0.982715
0.984744
0.985648
0.986382
0.98688
0.987461
0.988071
0.988986
0.990939
0.993447
0.994185
0.99424
0.993694
0.99221
0.988845
0.985704
0.984313
0.983538
0.983171
0.983047
0.983147
0.983985
0.985211
0.986592
0.987915
0.988497
0.988732
0.988954
0.989223
0.98981
0.991095
0.993177
0.995393
0.996789
0.997449
0.997527
0.997255
0.996558
0.990599
0.984595
0.984148
0.985441
0.986058
0.981641
0.979618
0.978045
0.97638
0.976547
0.979587
0.980694
0.980366
0.978264
0.975328
0.972774
0.970281
0.966871
0.964839
0.964269
0.964314
0.966946
0.974193
0.982432
0.986757
0.989452
0.991221
0.992517
0.993802
0.994722
0.995156
0.995254
0.994955
0.993729
0.99081
0.98766
0.985709
0.984828
0.984644
0.985036
0.986785
0.988534
0.989618
0.990173
0.990372
0.990415
0.990456
0.990573
0.990945
0.992128
0.993165
0.994432
0.994957
0.859258
0.812345
0.816937
0.851653
0.865834
0.868969
0.870058
0.870431
0.870606
0.871678
0.876648
0.889379
0.901444
0.907176
0.910272
0.911399
0.911097
0.908812
0.901973
0.894084
0.88143
0.866773
0.908849
0.956951
0.960876
0.961221
0.961288
0.960683
0.958335
0.955578
0.954264
0.954005
0.954462
0.954989
0.955597
0.956271
0.957173
0.95855
0.96133
0.964493
0.965449
0.965482
0.964962
0.964312
0.964021
0.963957
0.964266
0.965252
0.967105
0.970328
0.973168
0.974652
0.975263
0.975495
0.97554
0.975334
0.974352
0.972586
0.97053
0.968449
0.966724
0.965787
0.965385
0.96532
0.965854
0.966668
0.967451
0.96833
0.970058
0.972266
0.97436
0.97636
0.978862
0.981718
0.983203
0.984132
0.984339
0.984243
0.983538
0.982536
0.982161
0.981588
0.979555
0.972799
0.969819
0.970663
0.973135
0.977156
0.982365
0.984964
0.986041
0.986563
0.987048
0.98741
0.987898
0.988613
0.990394
0.993234
0.994229
0.994331
0.993758
0.991855
0.987636
0.984783
0.983546
0.982858
0.982125
0.981729
0.981536
0.981456
0.982035
0.983134
0.984903
0.987366
0.988574
0.989066
0.989146
0.988996
0.988946
0.989067
0.989412
0.990454
0.993011
0.995987
0.997513
0.997825
0.997397
0.991141
0.983707
0.983154
0.984503
0.984657
0.980749
0.979289
0.97678
0.975739
0.976804
0.980016
0.980623
0.98015
0.978333
0.975872
0.973522
0.970252
0.965388
0.961762
0.960836
0.960998
0.964241
0.971178
0.980477
0.986072
0.989157
0.991013
0.992188
0.993015
0.99409
0.99505
0.995479
0.995611
0.995525
0.994962
0.993413
0.991772
0.990792
0.990497
0.990477
0.990648
0.991298
0.991743
0.991895
0.991882
0.991827
0.991809
0.991879
0.992241
0.993455
0.994561
0.99576
0.996304
0.873988
0.835019
0.818523
0.829585
0.8528
0.864432
0.868338
0.869948
0.870363
0.87117
0.87444
0.887285
0.902613
0.909543
0.913235
0.916506
0.920148
0.92284
0.921396
0.908559
0.894452
0.871462
0.908277
0.958162
0.96088
0.961173
0.961293
0.960046
0.956251
0.954062
0.953748
0.953794
0.954161
0.954868
0.955666
0.956649
0.958193
0.961147
0.96433
0.965326
0.965489
0.965333
0.964977
0.964842
0.965307
0.966602
0.968659
0.970905
0.972922
0.97449
0.975552
0.976021
0.976469
0.976783
0.977083
0.977626
0.978005
0.978099
0.977751
0.976595
0.974055
0.970782
0.968367
0.967188
0.966741
0.96724
0.968205
0.969392
0.971026
0.972578
0.973668
0.97431
0.975904
0.979035
0.981396
0.983405
0.98429
0.984354
0.983662
0.982235
0.981854
0.980752
0.975676
0.970403
0.969858
0.971771
0.976332
0.981786
0.984852
0.986201
0.986778
0.987184
0.987532
0.987881
0.988403
0.989485
0.992101
0.99411
0.994433
0.99404
0.992305
0.987895
0.984776
0.983496
0.982864
0.982195
0.981517
0.981233
0.98095
0.980273
0.979753
0.979679
0.981125
0.984394
0.98794
0.989515
0.990101
0.990312
0.989831
0.989212
0.989014
0.989109
0.989569
0.991258
0.995329
0.997414
0.997443
0.992206
0.983432
0.982587
0.983899
0.983592
0.980181
0.978576
0.975776
0.975141
0.976892
0.980132
0.980617
0.98023
0.978727
0.976551
0.973378
0.968377
0.961537
0.958552
0.95809
0.958683
0.961587
0.96809
0.979046
0.98541
0.989038
0.991006
0.992163
0.992902
0.993456
0.994296
0.995209
0.995648
0.995789
0.995785
0.995552
0.995028
0.994627
0.994182
0.993715
0.993329
0.993082
0.992964
0.992929
0.99289
0.992888
0.992919
0.993097
0.993772
0.995286
0.996381
0.997365
0.997725
0.88174
0.867738
0.832336
0.830605
0.835647
0.844962
0.853235
0.861236
0.866699
0.868953
0.870549
0.874364
0.884168
0.893737
0.898479
0.904177
0.909984
0.919979
0.923493
0.920933
0.905322
0.874821
0.920154
0.959397
0.960597
0.961468
0.961899
0.96022
0.956297
0.954791
0.954432
0.954396
0.954831
0.955786
0.957097
0.959285
0.962252
0.964508
0.965355
0.965599
0.965687
0.965732
0.966161
0.967761
0.969534
0.971246
0.97237
0.973542
0.974599
0.975469
0.976148
0.976742
0.977539
0.978457
0.979246
0.979607
0.979729
0.97973
0.97967
0.979503
0.978994
0.978102
0.976481
0.973822
0.970853
0.968662
0.968008
0.9681
0.968559
0.968721
0.968403
0.967508
0.966731
0.967554
0.970526
0.97598
0.980251
0.981281
0.98005
0.975414
0.97473
0.975205
0.973196
0.970102
0.970923
0.97544
0.980959
0.984371
0.986012
0.986723
0.987099
0.987482
0.987817
0.988292
0.989038
0.990712
0.993497
0.994397
0.994358
0.993128
0.98941
0.98524
0.983699
0.983045
0.982635
0.982005
0.981552
0.981366
0.98107
0.980267
0.978877
0.977396
0.976907
0.97849
0.983594
0.988068
0.989976
0.990735
0.991004
0.99083
0.989978
0.989223
0.989147
0.989458
0.991004
0.995468
0.997187
0.99471
0.983686
0.98229
0.983406
0.982816
0.979916
0.978058
0.975028
0.974523
0.976732
0.980086
0.980613
0.980367
0.979092
0.976466
0.97164
0.963909
0.958601
0.957245
0.957111
0.957731
0.960116
0.965983
0.977437
0.984669
0.988928
0.991283
0.99234
0.992979
0.993401
0.993781
0.994373
0.995193
0.995687
0.995868
0.995895
0.995864
0.995739
0.99537
0.994624
0.993963
0.993535
0.993345
0.993296
0.993303
0.993356
0.99354
0.994066
0.9953
0.996655
0.997631
0.998486
0.998786
0.881963
0.87989
0.869343
0.853265
0.845314
0.84666
0.849355
0.85363
0.858667
0.863047
0.866131
0.868727
0.870648
0.872579
0.878301
0.893442
0.902668
0.911338
0.919955
0.921093
0.909907
0.879171
0.934627
0.959508
0.960284
0.96233
0.963352
0.962654
0.960148
0.958147
0.957465
0.957312
0.958095
0.959661
0.961225
0.963216
0.964741
0.965492
0.965841
0.966168
0.966579
0.967778
0.969461
0.970927
0.971846
0.972792
0.973404
0.974234
0.9752
0.97624
0.977275
0.978651
0.979359
0.979506
0.979458
0.978924
0.978157
0.977441
0.977101
0.977062
0.977676
0.978397
0.978821
0.979065
0.978786
0.977167
0.973809
0.970423
0.968582
0.967763
0.966946
0.966037
0.964795
0.963987
0.963895
0.965338
0.970938
0.975964
0.976248
0.972837
0.967912
0.968368
0.970772
0.970653
0.973858
0.978935
0.983474
0.985644
0.986539
0.986898
0.987236
0.987581
0.987903
0.988495
0.989544
0.991912
0.994202
0.994619
0.994125
0.991789
0.986457
0.984132
0.983317
0.982954
0.982526
0.981929
0.981595
0.981426
0.981172
0.980404
0.97875
0.975971
0.973919
0.973182
0.975101
0.982104
0.986944
0.989475
0.990763
0.991262
0.991292
0.990674
0.989537
0.98932
0.989634
0.991812
0.996364
0.995983
0.984733
0.982141
0.982914
0.982137
0.979766
0.977438
0.974119
0.973725
0.976196
0.979894
0.980575
0.980421
0.97927
0.976245
0.97003
0.962915
0.958134
0.956916
0.956801
0.957248
0.958874
0.964272
0.975371
0.983488
0.988578
0.991376
0.992835
0.993362
0.993573
0.993773
0.994019
0.994388
0.995034
0.995579
0.995815
0.995865
0.995824
0.995582
0.99483
0.994116
0.993697
0.99352
0.993494
0.993527
0.993692
0.994212
0.995621
0.99715
0.998299
0.998991
0.999416
0.999571
0.876651
0.884056
0.880877
0.877559
0.877209
0.877071
0.876705
0.875668
0.874565
0.874163
0.874228
0.874559
0.875287
0.876616
0.879478
0.888542
0.899243
0.907377
0.917387
0.92007
0.908705
0.881712
0.946083
0.95917
0.960032
0.962942
0.964386
0.964343
0.963417
0.962447
0.962105
0.962044
0.962712
0.96349
0.96415
0.965209
0.965915
0.966326
0.966945
0.967678
0.968744
0.969961
0.970972
0.971752
0.972472
0.973168
0.973911
0.975032
0.97675
0.978476
0.978988
0.979082
0.9788
0.977475
0.974782
0.971606
0.969667
0.968663
0.968175
0.96798
0.968162
0.96903
0.971083
0.97441
0.978373
0.980391
0.981287
0.980784
0.977552
0.97316
0.969488
0.967433
0.965696
0.96418
0.963307
0.963183
0.964002
0.968877
0.973552
0.97262
0.967038
0.96548
0.968149
0.970342
0.975079
0.981272
0.984554
0.985974
0.986718
0.987084
0.987463
0.987724
0.987966
0.988532
0.989844
0.992743
0.994649
0.994791
0.993588
0.989189
0.984944
0.983627
0.983121
0.982737
0.98213
0.981297
0.980967
0.980918
0.980873
0.980228
0.978156
0.974437
0.97033
0.96812
0.967526
0.970669
0.978211
0.983515
0.987436
0.989961
0.991181
0.991482
0.990983
0.989762
0.989524
0.990017
0.994496
0.996099
0.985808
0.982086
0.982453
0.98164
0.979671
0.977192
0.973462
0.972824
0.974936
0.979382
0.980443
0.980389
0.979326
0.975862
0.969883
0.965197
0.958798
0.956948
0.95676
0.957095
0.95831
0.962459
0.972614
0.981786
0.988066
0.991357
0.993257
0.994023
0.994089
0.99406
0.994078
0.994204
0.99442
0.994807
0.995243
0.995464
0.995497
0.995387
0.994816
0.994122
0.99378
0.993698
0.993725
0.993886
0.994395
0.995737
0.997301
0.998499
0.999231
0.999589
0.999776
0.999848
0.880509
0.895409
0.900266
0.901935
0.901721
0.901165
0.900072
0.89975
0.899784
0.899765
0.899405
0.898278
0.897274
0.89718
0.897396
0.898646
0.900827
0.905286
0.916017
0.919109
0.902495
0.891763
0.95425
0.958395
0.959107
0.962735
0.964813
0.965083
0.965002
0.964718
0.964618
0.964651
0.965032
0.965351
0.965703
0.966361
0.96685
0.967379
0.96816
0.968974
0.969812
0.97058
0.971263
0.97194
0.972776
0.973731
0.975149
0.977449
0.978351
0.978555
0.978317
0.976615
0.972657
0.968479
0.967022
0.966571
0.966433
0.966425
0.966425
0.966226
0.965892
0.965276
0.964469
0.963855
0.964721
0.970526
0.978494
0.982469
0.98384
0.983646
0.980747
0.975572
0.970875
0.967528
0.964947
0.963474
0.963237
0.964177
0.969109
0.971676
0.968687
0.964433
0.965329
0.969071
0.974711
0.981325
0.984891
0.986454
0.986891
0.987468
0.988055
0.98812
0.988158
0.988579
0.989992
0.993261
0.994883
0.994833
0.992972
0.987947
0.98441
0.983248
0.982755
0.982107
0.98066
0.978895
0.978478
0.979815
0.979937
0.979269
0.976555
0.972039
0.969108
0.965494
0.962493
0.961524
0.964106
0.969973
0.9769
0.983572
0.988356
0.990883
0.991459
0.990964
0.989806
0.989749
0.991927
0.995815
0.986651
0.981994
0.981977
0.981258
0.979694
0.976907
0.97269
0.97192
0.973159
0.978067
0.980035
0.980166
0.97922
0.975292
0.971221
0.968539
0.960932
0.957487
0.956925
0.957103
0.958121
0.960973
0.969509
0.980329
0.987893
0.991609
0.993629
0.994812
0.994937
0.99481
0.994549
0.994386
0.994375
0.99447
0.994594
0.994695
0.994718
0.994665
0.994383
0.99402
0.993902
0.993928
0.994098
0.994637
0.996037
0.997636
0.998769
0.999387
0.999701
0.999848
0.999917
0.999942
0.900288
0.902588
0.90108
0.897755
0.893209
0.888823
0.884479
0.88268
0.881969
0.882466
0.883645
0.885868
0.887881
0.889063
0.889058
0.888062
0.887915
0.898226
0.916534
0.917426
0.889689
0.912685
0.954695
0.956645
0.956877
0.961466
0.964587
0.965193
0.96539
0.965462
0.965508
0.965633
0.965861
0.966043
0.96632
0.966831
0.967348
0.967946
0.968691
0.969414
0.970084
0.970716
0.971423
0.972254
0.973501
0.975477
0.977445
0.978071
0.978112
0.977192
0.973928
0.969031
0.967129
0.966515
0.966431
0.966641
0.967071
0.967781
0.96885
0.970007
0.970522
0.970159
0.967891
0.964482
0.961069
0.958806
0.96023
0.971357
0.981084
0.98489
0.985814
0.985417
0.982551
0.976943
0.971174
0.966817
0.964332
0.963954
0.965642
0.970089
0.970035
0.965197
0.963962
0.96614
0.973114
0.980761
0.984713
0.986436
0.987401
0.988437
0.989411
0.989299
0.98876
0.988832
0.990068
0.993501
0.995128
0.9949
0.992446
0.987147
0.98371
0.98277
0.981863
0.979997
0.97601
0.974333
0.975499
0.978608
0.979119
0.978077
0.973964
0.970753
0.969095
0.96563
0.961691
0.959328
0.958578
0.959466
0.961935
0.968105
0.97825
0.986431
0.99049
0.991315
0.990684
0.989814
0.990365
0.994817
0.988002
0.981982
0.981652
0.980867
0.979759
0.97695
0.972155
0.970933
0.971481
0.974632
0.978714
0.979372
0.978448
0.974896
0.971994
0.969972
0.963752
0.958952
0.957536
0.957547
0.958135
0.960452
0.967646
0.979607
0.987923
0.992458
0.994531
0.995854
0.996128
0.99601
0.99563
0.995096
0.994709
0.994531
0.994487
0.994458
0.99439
0.994234
0.994065
0.993987
0.994019
0.994193
0.994759
0.996227
0.997826
0.998912
0.999486
0.999765
0.999891
0.999944
0.999963
0.999967
0.902538
0.898139
0.887074
0.87268
0.858857
0.849888
0.841792
0.841332
0.843453
0.849101
0.86027
0.867901
0.870655
0.871611
0.873957
0.877788
0.887668
0.910371
0.917951
0.905814
0.891822
0.93627
0.953269
0.952496
0.952028
0.958194
0.963413
0.96475
0.965261
0.965476
0.965595
0.965755
0.965967
0.966133
0.966382
0.966834
0.967368
0.968018
0.968771
0.969502
0.970203
0.970919
0.971824
0.973158
0.975829
0.977481
0.977987
0.977775
0.976514
0.972267
0.968484
0.967065
0.966696
0.966653
0.966806
0.96699
0.967254
0.967832
0.969095
0.971365
0.973877
0.976354
0.978284
0.977403
0.971263
0.961618
0.954893
0.953478
0.963099
0.978295
0.984931
0.986782
0.987008
0.986071
0.982535
0.975521
0.969099
0.965814
0.96563
0.968378
0.970188
0.967689
0.963746
0.96417
0.96928
0.97911
0.984096
0.986259
0.98733
0.989456
0.99092
0.990873
0.990313
0.989636
0.990406
0.993587
0.995286
0.995035
0.992531
0.986594
0.983268
0.981608
0.979541
0.975199
0.972086
0.971193
0.973684
0.977899
0.978627
0.976631
0.972267
0.970784
0.970089
0.968021
0.963864
0.960067
0.958321
0.958041
0.958316
0.95907
0.962161
0.973174
0.985062
0.99031
0.991059
0.99026
0.990045
0.993333
0.990762
0.982125
0.981312
0.980575
0.979785
0.977147
0.971845
0.970194
0.970177
0.971438
0.974823
0.976817
0.976004
0.973709
0.971883
0.970298
0.966072
0.960557
0.958386
0.958205
0.958605
0.960364
0.966797
0.97934
0.988522
0.993604
0.995839
0.997144
0.997639
0.997561
0.997262
0.996545
0.995691
0.995052
0.994702
0.994527
0.994374
0.994192
0.994104
0.994122
0.994265
0.994786
0.996277
0.997968
0.999025
0.999557
0.999807
0.999916
0.999959
0.999973
0.999973
0.99997
0.901848
0.878977
0.844538
0.826996
0.819002
0.815106
0.814441
0.81576
0.82016
0.832495
0.846479
0.859141
0.865698
0.867217
0.869515
0.882293
0.905439
0.916909
0.909915
0.896458
0.901099
0.943947
0.950295
0.946819
0.945901
0.951102
0.959344
0.962597
0.964114
0.964984
0.965333
0.965581
0.96585
0.966042
0.966303
0.966702
0.96724
0.967928
0.968733
0.969583
0.970458
0.971489
0.973195
0.975837
0.977598
0.978137
0.977844
0.976572
0.972351
0.968742
0.967282
0.966834
0.966731
0.966701
0.966508
0.966425
0.966511
0.966973
0.968142
0.971044
0.974514
0.977802
0.981403
0.984544
0.985367
0.98119
0.964731
0.951686
0.949001
0.957437
0.976379
0.984939
0.987399
0.987812
0.987408
0.985503
0.979059
0.971289
0.968045
0.968307
0.970262
0.969753
0.965024
0.963557
0.96546
0.97492
0.982605
0.985756
0.987056
0.989395
0.992018
0.992423
0.992106
0.991157
0.991345
0.993631
0.995394
0.995246
0.992861
0.986764
0.982128
0.979867
0.975935
0.971852
0.970012
0.969843
0.972458
0.977432
0.977981
0.974809
0.972018
0.971727
0.973609
0.974704
0.971952
0.966511
0.962393
0.960668
0.959759
0.95883
0.958373
0.959953
0.970654
0.985078
0.990373
0.990676
0.990067
0.991875
0.992767
0.983235
0.980937
0.980267
0.979769
0.977577
0.971992
0.969562
0.969069
0.9694
0.970682
0.973027
0.972862
0.972047
0.971038
0.970015
0.967493
0.962016
0.95933
0.9589
0.959194
0.960681
0.966577
0.97984
0.989473
0.994853
0.997243
0.998441
0.999054
0.999089
0.998974
0.998577
0.997516
0.996321
0.995517
0.995004
0.994641
0.994506
0.994506
0.994594
0.995008
0.996323
0.998086
0.999119
0.999615
0.99984
0.999935
0.99997
0.99998
0.999979
0.999973
0.999956
0.887166
0.840379
0.821523
0.814748
0.81184
0.810961
0.811395
0.814058
0.82395
0.836033
0.844673
0.850523
0.857623
0.866881
0.878744
0.906245
0.915798
0.911161
0.899154
0.898582
0.92085
0.941011
0.942366
0.938949
0.938959
0.944123
0.950345
0.957276
0.960888
0.963053
0.964398
0.964927
0.965436
0.965763
0.966092
0.966497
0.967013
0.967796
0.968735
0.969854
0.971253
0.973554
0.976389
0.978003
0.978499
0.978142
0.977247
0.97369
0.969627
0.967723
0.967021
0.966806
0.966743
0.966579
0.966282
0.966302
0.966499
0.967099
0.968466
0.971955
0.977285
0.981047
0.984428
0.98791
0.990555
0.991251
0.987204
0.964455
0.948022
0.945908
0.955177
0.976395
0.985593
0.988074
0.988435
0.988179
0.986844
0.981303
0.973612
0.970881
0.97099
0.971009
0.968106
0.96386
0.963968
0.968281
0.979451
0.984605
0.986421
0.989096
0.992069
0.993658
0.993573
0.992943
0.992763
0.993865
0.995495
0.995467
0.993558
0.987448
0.981818
0.977918
0.973484
0.970303
0.969201
0.969501
0.971957
0.977114
0.976943
0.973926
0.972427
0.974637
0.980798
0.985625
0.986355
0.982232
0.975516
0.97176
0.969692
0.966369
0.961055
0.958329
0.959703
0.971542
0.986404
0.990422
0.990277
0.990685
0.993085
0.985539
0.981014
0.980129
0.979729
0.978066
0.972527
0.969372
0.968169
0.968071
0.968374
0.969626
0.970401
0.97029
0.970028
0.969526
0.967983
0.963272
0.960267
0.959726
0.960015
0.961589
0.967567
0.981079
0.99081
0.996124
0.998482
0.999309
0.999626
0.999703
0.999685
0.999602
0.999317
0.998368
0.997051
0.996099
0.995604
0.995442
0.995449
0.995669
0.996661
0.998402
0.999266
0.999681
0.99987
0.999949
0.999978
0.999986
0.999985
0.999978
0.999948
0.999882
0.878241
0.831572
0.819085
0.814039
0.811643
0.811116
0.812551
0.81715
0.824674
0.833614
0.842463
0.851654
0.861684
0.879626
0.905924
0.914171
0.911594
0.900008
0.898197
0.906976
0.92602
0.930511
0.92847
0.9275
0.930672
0.938158
0.942505
0.949701
0.956062
0.959875
0.96281
0.964209
0.965062
0.965616
0.965997
0.96646
0.966973
0.967844
0.969016
0.970804
0.97363
0.976622
0.978547
0.979225
0.978872
0.978006
0.97569
0.971423
0.968569
0.967342
0.966907
0.966767
0.966676
0.966481
0.966444
0.966704
0.967568
0.969363
0.972516
0.978348
0.985278
0.989701
0.992998
0.995548
0.99651
0.996523
0.995471
0.98439
0.95557
0.944436
0.944562
0.957755
0.979144
0.987101
0.988843
0.988958
0.988682
0.987461
0.982299
0.975931
0.973631
0.97299
0.97133
0.965527
0.963741
0.965131
0.973262
0.982089
0.985253
0.988427
0.991835
0.993947
0.994694
0.994434
0.994137
0.994496
0.995626
0.995666
0.994394
0.988868
0.982178
0.977787
0.97325
0.970219
0.969208
0.969497
0.972131
0.976597
0.976328
0.973845
0.974297
0.98031
0.986854
0.989682
0.992048
0.993109
0.992137
0.990365
0.989021
0.986158
0.976928
0.963447
0.958903
0.961085
0.975905
0.988283
0.990272
0.990319
0.992536
0.989637
0.981539
0.980152
0.979739
0.978468
0.973404
0.969523
0.967703
0.967203
0.967209
0.9676
0.968606
0.969174
0.969181
0.969006
0.968011
0.964063
0.961119
0.960632
0.960947
0.962623
0.969178
0.982849
0.992355
0.99711
0.999016
0.999629
0.999831
0.999894
0.999897
0.999882
0.999823
0.999627
0.998952
0.99795
0.997289
0.997051
0.997079
0.997513
0.998753
0.999435
0.999751
0.999897
0.99996
0.999984
0.99999
0.999989
0.999983
0.999956
0.999861
0.999648
0.875357
0.83148
0.822114
0.818323
0.814644
0.813631
0.81571
0.821215
0.827419
0.835901
0.846297
0.860066
0.882486
0.906233
0.913055
0.912123
0.90179
0.897662
0.899006
0.91209
0.919613
0.919346
0.917067
0.916163
0.918058
0.926679
0.935744
0.943419
0.951504
0.956719
0.960924
0.963609
0.964928
0.965737
0.966141
0.966697
0.967246
0.968313
0.970066
0.973128
0.976302
0.978714
0.97984
0.979895
0.979259
0.977853
0.974283
0.970493
0.96843
0.967351
0.966914
0.966708
0.966442
0.966526
0.967068
0.968626
0.971784
0.975868
0.982582
0.989612
0.994763
0.997013
0.998139
0.998862
0.999273
0.999311
0.998843
0.993462
0.967679
0.947381
0.943424
0.946803
0.967113
0.984167
0.989184
0.989723
0.989464
0.988896
0.987384
0.981953
0.977394
0.975872
0.974323
0.968898
0.964272
0.964207
0.967567
0.978297
0.983537
0.987153
0.991243
0.993823
0.995065
0.995368
0.99523
0.995308
0.99586
0.995889
0.995085
0.991368
0.983266
0.978147
0.973547
0.970433
0.969457
0.969771
0.972329
0.976403
0.97599
0.97424
0.977655
0.985933