/*--------------------------------*- C++ -*----------------------------------*\
  =========                 |
  \\      /  F ield         | OpenFOAM: The Open Source CFD Toolbox
   \\    /   O peration     | Website:  https://openfoam.org
    \\  /    A nd           | Version:  6
     \\/     M anipulation  |
\*---------------------------------------------------------------------------*/
FoamFile
{
    version     2.0;
    format      ascii;
    class       volVectorField;
    location    "0.15";
    object      U;
}
// * * * * * * * * * * * * * * * * * * * * * * * * * * * * * * * * * * * * * //

dimensions      [0 1 -1 0 0 0 0];

internalField   nonuniform List<vector> 
12225
(
(9.87779 0.0437759 0)
(9.60872 0.054547 0)
(9.22978 0.0809722 0)
(8.89579 0.0773311 0)
(8.66433 0.0469024 0)
(8.48492 0.0271385 0)
(8.27621 0.0267576 0)
(8.00734 0.0283196 0)
(7.71479 0.0203312 0)
(7.44616 0.00757925 0)
(7.22129 0.000439704 0)
(7.0249 0.00346685 0)
(6.83796 0.0130819 0)
(6.63518 0.02225 0)
(6.45709 0.0257634 0)
(6.24956 0.0348427 0)
(6.12253 0.0283881 0)
(5.93441 0.0295594 0)
(9.92522 -0.054058 0)
(10.037 0.0234281 0)
(10.1015 0.0675218 0)
(10.1007 0.0678751 0)
(10.0688 0.0518213 0)
(10.0622 0.0496422 0)
(10.0859 0.0728582 0)
(10.1061 0.104144 0)
(10.1051 0.121899 0)
(10.09 0.120924 0)
(10.0765 0.111189 0)
(10.0684 0.102752 0)
(10.06 0.103388 0)
(10.0363 0.105152 0)
(10.0006 0.105771 0)
(9.94141 0.10029 0)
(9.88921 0.0922065 0)
(9.84706 0.0877583 0)
(10.0244 0.188806 0)
(9.95255 0.107622 0)
(10.0063 0.0598058 0)
(10.1592 0.0434574 0)
(10.2649 0.0340439 0)
(10.296 0.0314077 0)
(10.2907 0.0413782 0)
(10.2853 0.0532878 0)
(10.2933 0.0545067 0)
(10.3071 0.0456003 0)
(10.3155 0.037319 0)
(10.3118 0.0381318 0)
(10.2986 0.0500407 0)
(10.2798 0.0638826 0)
(10.26 0.0756206 0)
(10.2404 0.081641 0)
(10.2294 0.0812896 0)
(10.2277 0.0729829 0)
(9.97216 0.0109681 0)
(10.024 0.0584342 0)
(10.0833 0.0691204 0)
(10.0929 0.0679742 0)
(10.0319 0.0534388 0)
(9.95731 0.0534875 0)
(9.92572 0.0765181 0)
(9.94468 0.100239 0)
(9.99422 0.105992 0)
(10.0512 0.0961537 0)
(10.1034 0.0850221 0)
(10.1478 0.0816912 0)
(10.1854 0.0868715 0)
(10.2174 0.0943973 0)
(10.2429 0.0976375 0)
(10.2619 0.0934045 0)
(10.2783 0.0821503 0)
(10.2956 0.0644079 0)
(10.0766 0.132311 0)
(10.0293 0.00320293 0)
(10.0862 -0.0147241 0)
(10.1715 0.0316746 0)
(10.1722 0.0485829 0)
(10.097 0.0337188 0)
(10.0253 0.018214 0)
(10.0031 0.0117812 0)
(10.0242 0.00862603 0)
(10.0614 0.00621083 0)
(10.0968 0.00896085 0)
(10.1265 0.0199099 0)
(10.1524 0.0385912 0)
(10.1764 0.0592251 0)
(10.1976 0.0748284 0)
(10.2161 0.083054 0)
(10.2339 0.0819245 0)
(10.251 0.0684363 0)
(9.96832 0.116877 0)
(10.1286 0.0869062 0)
(10.1933 0.0449299 0)
(10.2804 0.0513428 0)
(10.3679 0.0878789 0)
(10.3975 0.125466 0)
(10.3675 0.140893 0)
(10.3054 0.129664 0)
(10.2358 0.102732 0)
(10.1694 0.0752409 0)
(10.1133 0.0583358 0)
(10.0762 0.0547388 0)
(10.0628 0.0604116 0)
(10.0743 0.0683808 0)
(10.1055 0.0721001 0)
(10.1486 0.0686844 0)
(10.1968 0.0568077 0)
(10.2405 0.0364666 0)
(10.259 0.0599056 0)
(10.2182 -0.033177 0)
(10.2315 -0.0298973 0)
(10.2539 0.00205264 0)
(10.2503 0.0109703 0)
(10.2395 0.0152101 0)
(10.2317 0.0275957 0)
(10.217 0.0432024 0)
(10.1896 0.0543183 0)
(10.1552 0.0578367 0)
(10.1271 0.0550965 0)
(10.1181 0.0492096 0)
(10.1323 0.0427324 0)
(10.1652 0.0371432 0)
(10.2095 0.0327198 0)
(10.252 0.027371 0)
(10.2872 0.0226831 0)
(10.3061 0.0141415 0)
(10.2152 0.0564938 0)
(10.2163 0.0279066 0)
(10.2393 -0.0111328 0)
(10.2361 0.0162674 0)
(10.2124 0.069667 0)
(10.1934 0.116472 0)
(10.19 0.141728 0)
(10.1944 0.141687 0)
(10.1967 0.1211 0)
(10.1887 0.0900157 0)
(10.1687 0.0600076 0)
(10.1413 0.0391256 0)
(10.1169 0.0298671 0)
(10.1024 0.0293823 0)
(10.1056 0.0334706 0)
(10.1258 0.0381188 0)
(10.1604 0.0401455 0)
(10.2062 0.0394315 0)
(9.91933 0.0750405 0)
(10.0372 -0.0380159 0)
(10.1275 -0.0172138 0)
(10.1091 0.0471989 0)
(10.0728 0.0704185 0)
(10.0767 0.0729929 0)
(10.1093 0.0749059 0)
(10.1392 0.0799681 0)
(10.1503 0.087746 0)
(10.139 0.0952248 0)
(10.1129 0.0972469 0)
(10.0844 0.0887786 0)
(10.0649 0.0689016 0)
(10.0594 0.0406836 0)
(10.0686 0.00941236 0)
(10.0899 -0.019111 0)
(10.1195 -0.0426549 0)
(10.1526 -0.0584361 0)
(10.0399 0.0260382 0)
(10.0623 0.0116402 0)
(9.95863 0.000229668 0)
(9.86437 0.0205785 0)
(9.83878 0.0287558 0)
(9.89379 0.0338146 0)
(9.97714 0.0452387 0)
(10.0344 0.0611684 0)
(10.0537 0.07422 0)
(10.0541 0.078139 0)
(10.0592 0.0721356 0)
(10.0808 0.0598411 0)
(10.1156 0.0458513 0)
(10.156 0.0332382 0)
(10.1928 0.0225516 0)
(10.2236 0.0128179 0)
(10.2457 0.00306202 0)
(10.2614 -0.007465 0)
(9.96541 0.0796212 0)
(10.0765 -0.0425754 0)
(10.1789 0.0465375 0)
(10.2021 0.115514 0)
(10.1644 0.0902047 0)
(10.1027 0.0565807 0)
(10.0412 0.0613126 0)
(10.008 0.0906472 0)
(10.0172 0.113371 0)
(10.0597 0.111526 0)
(10.1152 0.086488 0)
(10.1654 0.0494847 0)
(10.1994 0.0118851 0)
(10.2161 -0.0193793 0)
(10.2185 -0.0420482 0)
(10.2146 -0.0559821 0)
(10.205 -0.0631463 0)
(10.199 -0.0645613 0)
(10.0317 -0.15952 0)
(9.90427 -0.0795413 0)
(9.91144 -0.0220624 0)
(9.90799 0.0384333 0)
(9.87406 0.0705172 0)
(9.85509 0.0855142 0)
(9.87169 0.0831129 0)
(9.92368 0.0653753 0)
(9.99378 0.0434557 0)
(10.058 0.0276632 0)
(10.1008 0.0216051 0)
(10.1189 0.022683 0)
(10.1157 0.0253718 0)
(10.0992 0.0253293 0)
(10.0782 0.0195398 0)
(10.0613 0.00924858 0)
(10.0523 -0.00501641 0)
(10.0542 -0.0197874 0)
(9.95729 -0.0340138 0)
(10.1235 -0.0464299 0)
(10.173 0.0218979 0)
(10.1659 0.0977084 0)
(10.1711 0.0902265 0)
(10.2114 0.0443414 0)
(10.2497 0.015797 0)
(10.2578 0.0175123 0)
(10.234 0.0321723 0)
(10.1925 0.0411214 0)
(10.1511 0.038561 0)
(10.1211 0.0282645 0)
(10.1054 0.0155744 0)
(10.0997 0.00308166 0)
(10.104 -0.00888482 0)
(10.1108 -0.0208025 0)
(10.1254 -0.0330798 0)
(10.1341 -0.0436512 0)
(10.0458 -0.075419 0)
(9.91431 -0.0862829 0)
(9.80086 0.0184518 0)
(9.76414 0.0567741 0)
(9.8028 0.0499275 0)
(9.89415 0.041213 0)
(9.99192 0.0450379 0)
(10.0687 0.0575347 0)
(10.1144 0.0683661 0)
(10.132 0.0708597 0)
(10.1345 0.0660877 0)
(10.1335 0.0568741 0)
(10.1359 0.0444961 0)
(10.1442 0.0269093 0)
(10.1602 0.00416055 0)
(10.1848 -0.0211198 0)
(10.2141 -0.0457026 0)
(10.2497 -0.0620646 0)
(9.99302 -0.0648401 0)
(10.0386 -0.0055094 0)
(10.0194 0.102927 0)
(10.0336 0.0903344 0)
(10.1132 0.00985237 0)
(10.1687 -0.0456844 0)
(10.1549 -0.03939 0)
(10.1043 0.00700943 0)
(10.0583 0.0524958 0)
(10.0362 0.0717314 0)
(10.0392 0.0637703 0)
(10.057 0.0393612 0)
(10.0738 0.00955002 0)
(10.0801 -0.0194137 0)
(10.072 -0.0464842 0)
(10.0574 -0.0696103 0)
(10.0389 -0.0904732 0)
(10.0297 -0.104418 0)
(9.98455 0.0691034 0)
(9.95863 0.0613339 0)
(9.97941 0.0104146 0)
(10.0298 -0.0313887 0)
(10.0716 -0.0560829 0)
(10.1001 -0.0450591 0)
(10.1179 -0.00443492 0)
(10.1397 0.0299552 0)
(10.1741 0.032772 0)
(10.2168 0.0115648 0)
(10.2575 -0.00794234 0)
(10.2837 -0.00801056 0)
(10.2865 0.0103465 0)
(10.2653 0.0331056 0)
(10.2286 0.0432517 0)
(10.1864 0.0342163 0)
(10.1487 0.00523765 0)
(10.1192 -0.0325736 0)
(10.1414 0.0738905 0)
(10.0756 0.119446 0)
(9.95531 0.0692561 0)
(9.92195 -0.0188875 0)
(9.92725 -0.0596414 0)
(9.93871 -0.0412305 0)
(9.95128 0.00402625 0)
(9.96279 0.0380475 0)
(9.96728 0.0441384 0)
(9.96561 0.0325173 0)
(9.96588 0.0233072 0)
(9.97483 0.0270767 0)
(9.99364 0.0401491 0)
(10.0215 0.0505224 0)
(10.0551 0.0461382 0)
(10.0895 0.0239137 0)
(10.1201 -0.0135997 0)
(10.1411 -0.0553338 0)
(9.96148 0.0736961 0)
(9.98173 0.117698 0)
(10.0468 0.108434 0)
(10.066 0.0281182 0)
(10.0179 -0.0676309 0)
(9.96358 -0.102331 0)
(9.94681 -0.0686988 0)
(9.96242 -0.0159716 0)
(9.98904 0.0102946 0)
(10.0163 0.00167642 0)
(10.0436 -0.0239254 0)
(10.0727 -0.0466466 0)
(10.1037 -0.0580255 0)
(10.1361 -0.0605921 0)
(10.1663 -0.0602561 0)
(10.1888 -0.0618132 0)
(10.1981 -0.0647823 0)
(10.1902 -0.0677506 0)
(10.0419 0.13631 0)
(9.94417 0.0786213 0)
(9.97781 0.0305717 0)
(10.0313 0.0341563 0)
(10.0382 0.0508902 0)
(10.0255 0.0414522 0)
(10.0199 0.00367446 0)
(10.018 -0.0414701 0)
(10.0062 -0.0764307 0)
(9.98333 -0.0956022 0)
(9.95754 -0.102209 0)
(9.93556 -0.102704 0)
(9.92222 -0.100932 0)
(9.92023 -0.0973044 0)
(9.92962 -0.0878674 0)
(9.94636 -0.0706121 0)
(9.96537 -0.0443507 0)
(9.98319 -0.0112956 0)
(10.0271 0.0287523 0)
(10.0591 0.053887 0)
(10.0731 0.0298082 0)
(10.0793 -0.0058358 0)
(10.0347 -0.0374043 0)
(9.96783 -0.0388536 0)
(9.92429 -0.00770167 0)
(9.91215 0.0338946 0)
(9.9195 0.0624544 0)
(9.94095 0.0663279 0)
(9.97283 0.0455131 0)
(10.0057 0.00725536 0)
(10.0303 -0.0379863 0)
(10.0426 -0.0798842 0)
(10.0433 -0.111193 0)
(10.0362 -0.127616 0)
(10.0257 -0.129712 0)
(10.0172 -0.117999 0)
(10.2197 0.02295 0)
(10.1481 -0.0443991 0)
(10.1255 0.0042168 0)
(10.1229 0.0783784 0)
(10.0976 0.116955 0)
(10.0674 0.104053 0)
(10.0641 0.0545497 0)
(10.0854 -0.00241469 0)
(10.115 -0.0467877 0)
(10.146 -0.0743364 0)
(10.1741 -0.0885684 0)
(10.1912 -0.0925979 0)
(10.192 -0.0877055 0)
(10.178 -0.0758177 0)
(10.1546 -0.0601909 0)
(10.1274 -0.044956 0)
(10.1008 -0.0326981 0)
(10.078 -0.0255105 0)
(10.2268 0.0829113 0)
(10.2348 0.0564605 0)
(10.2404 0.0448869 0)
(10.2343 0.0328165 0)
(10.1934 0.0381225 0)
(10.1281 0.0434282 0)
(10.0704 0.022204 0)
(10.0387 -0.0256146 0)
(10.0259 -0.0790472 0)
(10.0231 -0.118336 0)
(10.0292 -0.135183 0)
(10.0426 -0.131207 0)
(10.0605 -0.113295 0)
(10.0786 -0.0899532 0)
(10.0927 -0.0682876 0)
(10.1006 -0.0513676 0)
(10.102 -0.0398305 0)
(10.1006 -0.0317125 0)
(9.88705 -0.0511089 0)
(9.96601 -0.0190405 0)
(9.9857 0.0526298 0)
(9.97643 0.138708 0)
(9.97764 0.186454 0)
(10.0261 0.154974 0)
(10.1109 0.0791944 0)
(10.1878 0.0152657 0)
(10.2181 -0.0132275 0)
(10.1949 -0.019605 0)
(10.1376 -0.0252533 0)
(10.0718 -0.0369328 0)
(10.0155 -0.0481387 0)
(9.97659 -0.0506865 0)
(9.9539 -0.0440858 0)
(9.94439 -0.0330516 0)
(9.94328 -0.0243021 0)
(9.95029 -0.0235903 0)
(10.1476 -0.0656199 0)
(9.9768 -0.00484821 0)
(9.91828 0.043781 0)
(9.8997 0.0367748 0)
(9.96826 0.0273128 0)
(10.0331 0.00480923 0)
(10.0324 -0.0282002 0)
(9.98836 -0.0512733 0)
(9.94825 -0.0567504 0)
(9.93512 -0.0551377 0)
(9.9427 -0.0582795 0)
(9.9534 -0.0671794 0)
(9.95565 -0.0749706 0)
(9.94907 -0.0753882 0)
(9.94155 -0.069113 0)
(9.93998 -0.0607188 0)
(9.94836 -0.0555378 0)
(9.96538 -0.057348 0)
(9.90561 -0.0277756 0)
(9.90912 0.050082 0)
(9.97946 0.0866543 0)
(10.032 0.0797753 0)
(10.039 0.0597503 0)
(10.046 0.0383779 0)
(10.0967 0.0151762 0)
(10.1869 -0.00560916 0)
(10.2781 -0.0176417 0)
(10.3314 -0.0183491 0)
(10.3287 -0.00999132 0)
(10.276 0.00156119 0)
(10.1957 0.00944519 0)
(10.1154 0.00855487 0)
(10.0545 -0.00310984 0)
(10.0193 -0.0228457 0)
(10.0068 -0.0472374 0)
(10.009 -0.0699833 0)
(10.1137 -0.042468 0)
(10.0837 -0.0190898 0)
(10.015 0.00277471 0)
(9.99462 0.0368567 0)
(10.0089 0.0549288 0)
(10.0191 0.0204826 0)
(10.003 -0.0470606 0)
(9.96396 -0.100375 0)
(9.92092 -0.111241 0)
(9.89521 -0.0832287 0)
(9.89825 -0.0384345 0)
(9.92896 0.000126673 0)
(9.97833 0.0187393 0)
(10.0348 0.0158575 0)
(10.0862 -0.00193856 0)
(10.1228 -0.0256041 0)
(10.1405 -0.0485997 0)
(10.1383 -0.0676364 0)
(9.69432 -0.144458 0)
(9.66831 0.0380443 0)
(9.73382 0.0778377 0)
(9.87371 0.0595853 0)
(10.0124 0.0293676 0)
(10.0921 0.00341204 0)
(10.1133 -0.00901669 0)
(10.1044 -0.0117337 0)
(10.0923 -0.0110833 0)
(10.0951 -0.0109348 0)
(10.1184 -0.0139552 0)
(10.1554 -0.0217921 0)
(10.1939 -0.033845 0)
(10.2246 -0.0468725 0)
(10.2445 -0.0572516 0)
(10.2528 -0.0632417 0)
(10.252 -0.0653025 0)
(10.2416 -0.0661983 0)
(9.79982 -0.253862 0)
(10.012 -0.0700222 0)
(9.91626 -0.0233805 0)
(9.82341 -0.0261575 0)
(9.82778 -0.0226051 0)
(9.88754 -0.0212596 0)
(9.97172 -0.0328018 0)
(10.0624 -0.0539193 0)
(10.1397 -0.0721462 0)
(10.1902 -0.0777884 0)
(10.2141 -0.0698717 0)
(10.22 -0.0543569 0)
(10.2199 -0.0392302 0)
(10.2237 -0.0300483 0)
(10.2367 -0.0272866 0)
(10.2567 -0.0287185 0)
(10.2797 -0.0305318 0)
(10.2986 -0.0302434 0)
(9.76914 -0.0819521 0)
(9.7594 -0.00953947 0)
(9.86164 0.0175729 0)
(10.0585 0.00736929 0)
(10.2127 -0.0183287 0)
(10.2677 -0.0542295 0)
(10.2575 -0.0899482 0)
(10.2258 -0.110062 0)
(10.1908 -0.106359 0)
(10.1602 -0.0849084 0)
(10.1401 -0.0607862 0)
(10.132 -0.0475387 0)
(10.1319 -0.0498438 0)
(10.134 -0.0638275 0)
(10.1337 -0.08106 0)
(10.1307 -0.0947704 0)
(10.1248 -0.101125 0)
(10.1222 -0.100485 0)
(9.8136 -0.0454476 0)
(9.73854 -0.00168567 0)
(9.6386 0.000362937 0)
(9.515 -0.0346308 0)
(9.37916 -0.0504537 0)
(9.22994 -0.0393509 0)
(9.0682 -0.0229248 0)
(8.88933 -0.0169268 0)
(8.70084 -0.0192582 0)
(8.52807 -0.0215602 0)
(8.39054 -0.0204615 0)
(8.28518 -0.0178108 0)
(8.19359 -0.0162111 0)
(8.09949 -0.0165604 0)
(7.99382 -0.0183809 0)
(7.87821 -0.0203864 0)
(7.75536 -0.0220473 0)
(7.63638 -0.0221335 0)
(0.0325401 -0.0816199 -1.1383e-21)
(0.0782532 -0.0808219 1.13169e-21)
(0.106389 -0.0525617 0)
(0.100958 0.00148711 0)
(0.0589565 0.0638565 0)
(-0.00839673 0.104108 -1.11109e-21)
(-0.0771974 0.0907593 0)
(-0.133193 0.038957 0)
(-0.185384 0.0021221 0)
(-0.255282 0.00143315 0)
(-0.355964 0.0478627 1.08781e-21)
(-0.497832 0.141597 0)
(-0.683066 0.215278 0)
(-0.8642 0.183512 0)
(-0.97378 0.0931345 0)
(-1.01503 0.0356746 1.05431e-21)
(-1.0212 -0.000313034 0)
(-0.992766 -0.0437987 0)
(-0.931746 -0.0787711 0)
(-0.847912 -0.0973037 0)
(-0.74691 -0.110185 0)
(-0.631459 -0.122805 0)
(-0.505067 -0.13322 0)
(-0.371917 -0.139583 9.6321e-22)
(-0.236033 -0.141981 -9.57407e-22)
(-0.101333 -0.141074 9.54065e-22)
(0.0272912 -0.136467 9.52717e-22)
(0.144758 -0.12821 0)
(0.248309 -0.117025 0)
(0.334752 -0.101923 -9.55397e-22)
(0.400234 -0.0826185 -9.56068e-22)
(0.440848 -0.0597954 0)
(0.453607 -0.0348974 0)
(0.435854 -0.0104389 -9.46565e-22)
(0.390547 0.0106106 0)
(0.322963 0.0263664 0)
(0.23812 0.0372443 9.17997e-22)
(0.140326 0.0448078 0)
(0.0329961 0.0500365 8.95711e-22)
(-0.0797128 0.0533107 1.77057e-21)
(-0.19439 0.0554913 0)
(-0.309855 0.0575254 0)
(-0.425721 0.060498 0)
(-0.542672 0.0642993 0)
(-0.661406 0.0687412 0)
(-0.782944 0.0754512 1.64962e-21)
(-0.907883 0.0856714 1.61476e-21)
(-1.0355 0.0959516 1.57054e-21)
(-1.1599 0.0992795 0)
(-1.27481 0.0940223 -1.44756e-21)
(-1.37442 0.0830633 0)
(-1.45541 0.0677285 1.27045e-21)
(-1.51616 0.0494439 1.15872e-21)
(-1.55518 0.0297255 0)
(-1.56977 0.00702463 0)
(-1.5545 -0.0219467 0)
(-1.50305 -0.0562074 5.62547e-22)
(-1.41052 -0.0884739 0)
(-1.27589 -0.113571 0)
(-1.10217 -0.131707 0)
(-0.898586 -0.145723 0)
(-0.676007 -0.150645 0)
(-0.447148 -0.140352 0)
(-0.224905 -0.1178 0)
(-0.0244421 -0.0913152 0)
(0.151494 -0.0649933 8.21635e-22)
(0.306539 -0.0438018 0)
(0.44617 -0.0338252 0)
(0.578886 -0.0294862 -1.16226e-21)
(0.707387 -0.0447495 -1.26916e-21)
(0.846647 -0.0748702 0)
(0.990669 -0.0903399 1.45803e-21)
(1.12411 -0.105178 -1.53434e-21)
(1.20123 -0.0937678 0)
(1.23361 -0.0798608 1.65151e-21)
(1.32254 -0.0772654 0)
(1.39801 -0.00452348 0)
(1.43029 0.0718214 -1.74262e-21)
(1.44528 0.0429808 0)
(1.46791 -0.0362072 1.75502e-21)
(1.52097 -0.0555591 0)
(1.56558 -0.0462406 -1.75206e-21)
(1.56998 -0.0492716 -1.73907e-21)
(1.56447 -0.0474803 -1.72909e-21)
(1.57651 -0.0347524 -3.44213e-21)
(1.60465 0.0561733 3.43447e-21)
(1.60935 -0.0738534 0)
(1.47184 0.126239 0)
(1.16536 0.256324 0)
(1.47756 -0.0940971 3.40746e-21)
(1.594 -0.148675 3.26864e-21)
(1.08395 0.119201 -3.02657e-21)
(0.484269 0.314838 0)
(-0.213001 0.329608 2.24539e-21)
(-0.866981 0.334122 1.65998e-21)
(-1.60219 0.342003 9.62893e-22)
(-2.34486 0.367997 0)
(-3.15625 0.384119 0)
(-3.97938 0.393919 0)
(-4.83145 0.394112 -2.82296e-21)
(-5.67257 0.38286 0)
(-6.48976 0.356559 0)
(-7.24582 0.317824 6.46241e-21)
(-7.91806 0.267059 0)
(-8.47041 0.204476 0)
(-8.87405 0.130877 9.30482e-21)
(-9.09981 0.0530219 0)
(-9.13327 -0.0210288 0)
(-8.98542 -0.0878003 -9.45546e-21)
(-8.69911 -0.146122 -8.87302e-21)
(-8.28351 -0.191774 0)
(-7.7833 -0.223099 7.18417e-21)
(-7.22301 -0.24178 0)
(-6.63379 -0.249891 -5.30515e-21)
(-6.03289 -0.250784 0)
(-5.43513 -0.247094 -3.57109e-21)
(-4.84708 -0.24138 -2.78987e-21)
(-4.27239 -0.235054 0)
(-3.71114 -0.229099 0)
(-3.16171 -0.223776 0)
(-2.62134 -0.219573 0)
(-2.08637 -0.218308 0)
(-1.55171 -0.222224 0)
(-1.01455 -0.227789 0)
(-0.503053 -0.216943 1.4541e-21)
(-0.157375 -0.0998157 -1.71705e-21)
(0.281344 -0.148205 0)
(0.794294 -0.204574 0)
(1.48565 -0.158849 0)
(1.96503 0.0317313 0)
(2.18963 0.0400592 -3.98983e-21)
(2.34512 -0.0911399 0)
(1.81285 0.164959 4.27001e-21)
(1.57319 0.257554 -4.46553e-21)
(1.71674 -0.0427629 0)
(2.47142 -0.180646 0)
(0.626775 0.811054 0)
(-4.81878 1.45731 1.65402e-21)
(-8.58776 1.03327 -5.1042e-21)
(-10.9313 0.642636 0)
(-12.5234 0.38388 -1.94545e-20)
(-13.4707 0.199686 -2.427e-20)
(-13.957 0.0707111 2.71201e-20)
(-14.0629 -0.0298061 0)
(-13.8671 -0.11094 0)
(-13.4381 -0.181456 2.54266e-20)
(-12.7565 -0.246445 0)
(-11.8421 -0.30989 0)
(-10.6983 -0.366696 0)
(-9.39035 -0.405399 0)
(-7.99764 -0.417148 -2.20468e-21)
(-6.61101 -0.401461 1.91448e-21)
(-5.29612 -0.367202 0)
(-4.09772 -0.322665 7.29168e-21)
(-3.03843 -0.276315 0)
(-2.12309 -0.232802 0)
(-1.34167 -0.194751 1.00266e-20)
(-0.673367 -0.162666 0)
(-0.0888051 -0.136057 1.01543e-20)
(0.441944 -0.115409 0)
(0.935092 -0.102589 0)
(1.39601 -0.095412 9.63061e-21)
(1.83233 -0.0909694 0)
(2.25258 -0.0884545 9.21917e-21)
(2.66838 -0.0873812 0)
(3.08619 -0.0883774 0)
(3.5159 -0.0901431 0)
(3.95834 -0.0927951 -8.53285e-21)
(4.41847 -0.0954883 0)
(4.89269 -0.0980934 8.19853e-21)
(5.37886 -0.0939111 0)
(5.84713 -0.0883707 0)
(6.29811 -0.0785642 0)
(6.69882 -0.0733962 0)
(7.08335 -0.0580018 0)
(7.40289 -0.0607547 0)
(7.74929 -0.053707 0)
(8.02689 -0.0518223 -1.17355e-20)
(8.33317 -0.00815051 0)
(8.43926 -0.0336426 0)
(-0.0168391 -0.0551234 3.39831e-21)
(-0.104275 0.0435727 -3.38044e-21)
(-0.193582 0.135772 0)
(-0.269543 0.188896 2.23384e-21)
(-0.332951 0.204672 0)
(-0.388316 0.197951 1.10996e-21)
(-0.460168 0.195675 -2.21736e-21)
(-0.564542 0.220955 -2.21201e-21)
(-0.697901 0.278269 0)
(-0.838106 0.350625 -2.20416e-21)
(-0.947654 0.409585 -1.08577e-21)
(-1.00183 0.423461 0)
(-1.01462 0.371445 0)
(-1.01173 0.257331 0)
(-0.998744 0.123648 0)
(-0.974524 0.00723869 -1.05446e-21)
(-0.929797 -0.0939062 0)
(-0.861354 -0.180599 2.0875e-21)
(-0.776953 -0.246822 0)
(-0.683847 -0.296022 0)
(-0.581054 -0.334787 -2.00361e-21)
(-0.470283 -0.364436 0)
(-0.35484 -0.384966 1.96009e-21)
(-0.234469 -0.397089 -9.63268e-22)
(-0.110316 -0.398864 9.57397e-22)
(0.0127495 -0.387975 -9.53844e-22)
(0.12815 -0.364936 -9.52294e-22)
(0.232483 -0.329664 0)
(0.32447 -0.28602 0)
(0.402196 -0.232743 9.55118e-22)
(0.461345 -0.169748 -9.79379e-22)
(0.496877 -0.099431 0)
(0.505225 -0.0259295 0)
(0.48547 0.0466944 9.46483e-22)
(0.437915 0.113529 0)
(0.36362 0.170493 0)
(0.264775 0.215114 -9.17886e-22)
(0.146018 0.246691 0)
(0.0130597 0.266046 9.14459e-22)
(-0.128494 0.275472 -1.76993e-21)
(-0.274341 0.279143 0)
(-0.42116 0.281222 0)
(-0.565901 0.283958 -3.48775e-21)
(-0.706557 0.286638 -3.46164e-21)
(-0.841381 0.288397 -3.42983e-21)
(-0.968319 0.289488 1.7375e-21)
(-1.08704 0.288276 -1.61385e-21)
(-1.19966 0.279036 -4.81453e-21)
(-1.30418 0.258462 3.13908e-21)
(-1.39823 0.230243 1.44696e-21)
(-1.48587 0.197025 0)
(-1.56409 0.161038 -1.27006e-21)
(-1.6234 0.122403 1.26357e-21)
(-1.65722 0.0768222 0)
(-1.66572 0.0231102 0)
(-1.64766 -0.0415851 0)
(-1.59604 -0.120563 -5.62397e-22)
(-1.5019 -0.206304 0)
(-1.36569 -0.288388 4.69519e-22)
(-1.19723 -0.362739 0)
(-0.997765 -0.424353 -2.14277e-22)
(-0.768808 -0.451783 0)
(-0.52908 -0.445172 8.24847e-22)
(-0.283638 -0.416165 0)
(-0.0444475 -0.379027 -1.35807e-21)
(0.183409 -0.344891 7.84447e-22)
(0.387408 -0.315465 0)
(0.559266 -0.289107 2.08221e-21)
(0.703518 -0.275392 1.16181e-21)
(0.813424 -0.259658 1.26872e-21)
(0.915621 -0.257968 0)
(1.04963 -0.260857 1.47842e-21)
(1.19495 -0.189567 1.53386e-21)
(1.33748 -0.0737433 0)
(1.47594 -0.0956774 -1.65066e-21)
(1.59555 -0.186236 3.42029e-21)
(1.6273 -0.116592 0)
(1.69623 -0.00517519 1.74165e-21)
(1.87229 -0.0722537 0)
(1.99984 -0.175181 -5.2777e-21)
(1.95674 -0.0959097 0)
(1.81366 0.0564685 5.25529e-21)
(1.72624 0.0453937 1.73856e-21)
(1.72121 0.0102038 -1.71152e-21)
(1.75682 -0.0179444 -3.38126e-21)
(1.89444 -0.0483118 3.35984e-21)
(1.66002 0.259888 0)
(1.61734 0.38507 0)
(1.87026 0.0239861 0)
(1.39065 0.0940806 -1.03843e-20)
(0.186859 0.625016 -3.27494e-21)
(-0.812906 0.92976 3.02984e-21)
(-1.61248 1.01596 0)
(-2.3959 1.01974 1.86476e-21)
(-3.07396 1.03105 -1.65281e-21)
(-3.76928 1.0424 -9.5881e-22)
(-4.41005 1.0632 0)
(-5.06082 1.072 0)
(-5.68635 1.07501 0)
(-6.31306 1.06035 2.81423e-21)
(-6.91654 1.02418 0)
(-7.49938 0.960272 -1.11826e-20)
(-8.03781 0.867299 -2.01407e-20)
(-8.51694 0.739893 1.60324e-20)
(-8.90749 0.576165 0)
(-9.18437 0.380062 1.01816e-20)
(-9.32279 0.164657 0)
(-9.31339 -0.0526252 2.02926e-20)
(-9.14757 -0.255674 -1.01719e-20)
(-8.81869 -0.431531 -9.50249e-21)
(-8.374 -0.56892 0)
(-7.83731 -0.662985 -2.19927e-20)
(-7.25003 -0.716574 1.28548e-20)
(-6.63569 -0.737497 5.30116e-21)
(-6.01679 -0.735857 0)
(-5.40399 -0.720579 3.56864e-21)
(-4.80482 -0.699022 8.60439e-21)
(-4.22087 -0.676003 0)
(-3.65166 -0.654358 2.99752e-21)
(-3.09488 -0.635732 1.75306e-21)
(-2.54791 -0.621952 6.16339e-22)
(-2.0063 -0.61589 0)
(-1.46105 -0.617785 0)
(-0.913197 -0.614665 0)
(-0.41972 -0.564873 1.35151e-21)
(-0.0555795 -0.282316 1.71641e-21)
(0.530717 -0.539465 0)
(1.26357 -0.794867 4.16144e-21)
(1.94303 -0.597407 4.11568e-21)
(2.42514 -0.173098 0)
(2.64288 0.0338758 3.98819e-21)
(2.27332 0.283347 7.99091e-21)
(2.02464 0.32922 -4.26821e-21)
(2.65617 -0.0739523 -4.32332e-21)
(1.94456 0.278099 0)
(-1.15317 1.95049 0)
(-5.37332 3.3374 0)
(-9.15933 3.30068 -1.64109e-21)
(-10.7443 2.36666 -1.26681e-20)
(-11.9394 1.59061 -3.13216e-20)
(-12.6979 0.986852 1.94286e-20)
(-13.2196 0.532969 -2.72524e-20)
(-13.4709 0.184978 -2.71283e-20)
(-13.5001 -0.0970136 0)
(-13.298 -0.33263 0)
(-12.8502 -0.539053 2.70048e-20)
(-12.1837 -0.732702 0)
(-11.2658 -0.923689 0)
(-10.1226 -1.0997 -2.64852e-20)
(-8.79154 -1.22377 0)
(-7.37214 -1.26249 -3.20363e-21)
(-5.95998 -1.21577 -1.91315e-21)
(-4.63364 -1.11101 0)
(-3.44303 -0.977807 6.92546e-21)
(-2.40976 -0.843699 0)
(-1.53525 -0.723731 0)
(-0.801956 -0.623176 -1.00256e-20)
(-0.18407 -0.539938 2.02068e-20)
(0.35234 -0.47223 -1.01488e-20)
(0.837574 -0.42052 0)
(1.29038 -0.386252 0)
(1.71968 -0.365247 9.50378e-21)
(2.1313 -0.351429 0)
(2.53152 -0.343278 9.09791e-21)
(2.92988 -0.339833 0)
(3.33441 -0.341485 0)
(3.75224 -0.346999 0)
(4.1896 -0.355193 8.52847e-21)
(4.64918 -0.363529 0)
(5.13125 -0.37017 -8.19412e-21)
(5.62731 -0.365645 0)
(6.12587 -0.35102 0)
(6.59974 -0.322215 1.48221e-20)
(7.03889 -0.296078 -1.41809e-20)
(7.43214 -0.267019 0)
(7.81617 -0.254029 0)
(8.15538 -0.228213 0)
(8.48127 -0.231138 3.4932e-20)
(8.82349 -0.136161 0)
(9.08501 -0.0733451 -2.12768e-20)
(-0.0608415 0.136753 -1.0306e-23)
(-0.217979 0.25161 4.48615e-21)
(-0.341384 0.291904 0)
(-0.442278 0.290043 -4.46444e-21)
(-0.525952 0.284168 0)
(-0.604377 0.316514 0)
(-0.684235 0.38677 -1.87067e-23)
(-0.757404 0.455363 2.21029e-21)
(-0.817853 0.4927 2.23239e-21)
(-0.863764 0.497653 2.2034e-21)
(-0.89165 0.476678 0)
(-0.895576 0.42399 0)
(-0.877468 0.327019 -2.21519e-21)
(-0.850445 0.190406 -4.40839e-21)
(-0.820074 0.04406 4.37645e-21)
(-0.769879 -0.087423 0)
(-0.686225 -0.201933 4.27383e-21)
(-0.590557 -0.29875 -2.0885e-21)
(-0.509051 -0.373025 0)
(-0.433362 -0.434454 4.09485e-21)
(-0.347166 -0.489124 2.00432e-21)
(-0.257265 -0.528422 -3.99275e-21)
(-0.171104 -0.556403 -1.96049e-21)
(-0.0795159 -0.581447 0)
(0.0186781 -0.587933 3.90593e-21)
(0.115111 -0.561392 3.89542e-21)
(0.204366 -0.513047 0)
(0.290906 -0.450038 3.90316e-21)
(0.374419 -0.379497 0)
(0.449829 -0.294559 3.93532e-21)
(0.506613 -0.192718 1.93461e-21)
(0.535109 -0.077242 0)
(0.530149 0.0456979 0)
(0.49051 0.167799 0)
(0.417573 0.281202 0)
(0.314489 0.379536 0)
(0.185661 0.458023 0)
(0.0358198 0.514014 3.73216e-21)
(-0.129932 0.547045 -5.49359e-21)
(-0.304584 0.560685 0)
(-0.480933 0.559939 0)
(-0.652491 0.546298 0)
(-0.815024 0.522802 -1.03223e-22)
(-0.969262 0.496992 3.45853e-21)
(-1.11503 0.477108 6.9912e-21)
(-1.24992 0.464193 -6.9222e-21)
(-1.37551 0.44895 -3.49532e-21)
(-1.49278 0.426508 3.24203e-21)
(-1.60026 0.401441 1.92249e-22)
(-1.70394 0.369735 3.20168e-21)
(-1.80785 0.325138 0)
(-1.90586 0.269259 2.85061e-21)
(-1.98875 0.200569 1.99073e-22)
(-2.04742 0.120401 0)
(-2.09084 0.0284289 0)
(-2.10721 -0.0728606 -1.71864e-21)
(-2.07456 -0.187481 0)
(-1.98273 -0.323379 0)
(-1.84381 -0.475189 7.30826e-22)
(-1.65757 -0.609949 4.78011e-22)
(-1.41483 -0.690147 2.13987e-22)
(-1.14244 -0.716796 0)
(-0.869278 -0.713768 -8.23799e-22)
(-0.609261 -0.680584 0)
(-0.367527 -0.62017 -1.17837e-21)
(-0.141508 -0.542833 -1.60521e-21)
(0.0659172 -0.464793 3.57385e-21)
(0.247295 -0.393777 2.00544e-21)
(0.402718 -0.336998 0)
(0.544608 -0.333879 -5.09061e-21)
(0.663818 -0.391455 0)
(0.777986 -0.422362 -8.88725e-21)
(0.934251 -0.413953 -6.27818e-21)
(1.11049 -0.384063 -6.54174e-21)
(1.21554 -0.321621 6.77138e-21)
(1.3149 -0.232869 -1.03788e-20)
(1.47705 -0.208468 0)
(1.66707 -0.304314 0)
(1.71762 -0.360091 7.15208e-21)
(1.59981 -0.172172 1.06658e-20)
(1.47492 0.108176 0)
(1.4738 0.159521 -3.50609e-21)
(1.5756 0.0246357 0)
(1.75616 -0.148412 1.02393e-20)
(1.91687 -0.170114 1.36199e-22)
(1.95642 0.090541 -1.91206e-22)
(1.90652 0.351534 -6.57645e-21)
(2.0914 0.20975 0)
(1.55796 0.395578 6.93741e-21)
(0.116198 1.12738 1.16504e-22)
(-1.07136 1.60875 0)
(-1.78198 1.70246 0)
(-2.40545 1.68924 0)
(-2.94831 1.64139 -4.0943e-21)
(-3.4548 1.61361 0)
(-3.96012 1.59982 0)
(-4.45108 1.60524 0)
(-4.95848 1.61217 0)
(-5.48458 1.61903 0)
(-6.04594 1.60846 7.06191e-21)
(-6.63476 1.57177 0)
(-7.24653 1.49695 1.11772e-20)
(-7.85726 1.37274 1.36834e-20)
(-8.43442 1.18732 -1.60234e-20)
(-8.92648 0.936405 0)
(-9.28199 0.624352 -1.94708e-20)
(-9.45952 0.267677 0)
(-9.44189 -0.1059 -2.02867e-20)
(-9.23612 -0.461282 1.96138e-20)
(-8.86913 -0.766271 5.72827e-20)
(-8.3778 -1.00096 0)
(-7.80364 -1.15763 4.59666e-20)
(-7.18534 -1.24155 1.41461e-20)
(-6.5524 -1.26922 0)
(-5.92239 -1.25921 1.91797e-20)
(-5.30494 -1.22748 1.56701e-20)
(-4.70367 -1.18606 -1.82397e-20)
(-4.11922 -1.14295 0)
(-3.55029 -1.10268 -2.99575e-21)
(-2.99526 -1.06813 -1.75205e-21)
(-2.45245 -1.0412 -2.41665e-21)
(-1.91737 -1.02192 0)
(-1.3805 -1.00689 0)
(-0.850271 -0.985507 0)
(-0.395534 -0.902354 2.42872e-21)
(0.188837 -0.586979 0)
(0.8464 -1.11868 0)
(1.56466 -1.45581 -4.15538e-21)
(2.26406 -1.12855 -4.11113e-21)
(2.86445 -0.495311 0)
(2.90992 0.210783 0)
(2.33966 0.569889 -7.98602e-21)
(2.44747 0.132402 0)
(1.71718 0.489758 8.79001e-21)
(-0.985954 2.2974 7.55992e-21)
(-4.73029 4.34251 0)
(-7.88566 5.22943 0)
(-9.3749 4.53051 1.39488e-20)
(-10.0471 3.31705 -8.58431e-21)
(-10.9953 2.34406 -6.84247e-21)
(-11.6955 1.52547 0)
(-12.2469 0.868937 1.07238e-19)
(-12.529 0.325152 0)
(-12.581 -0.131118 0)
(-12.4082 -0.521881 0)
(-12.0294 -0.8644 -5.24482e-20)
(-11.438 -1.19049 0)
(-10.6083 -1.51893 7.8973e-20)
(-9.52373 -1.83221 2.64695e-20)
(-8.2196 -2.06349 0)
(-6.77903 -2.14188 5.40185e-21)
(-5.31269 -2.0604 0)
(-3.91359 -1.86834 0)
(-2.64944 -1.61958 -4.12531e-20)
(-1.55728 -1.36478 3.33724e-20)
(-0.647059 -1.13607 0)
(0.0836998 -0.950515 3.9139e-20)
(0.661753 -0.80906 -2.01886e-20)
(1.13257 -0.705961 0)
(1.53929 -0.634083 0)
(1.91296 -0.586507 0)
(2.27043 -0.555875 -5.69619e-20)
(2.61722 -0.535657 0)
(2.95758 -0.52456 -1.82993e-20)
(3.29663 -0.522471 0)
(3.6426 -0.528875 0)
(4.00228 -0.542026 0)
(4.38224 -0.559756 0)
(4.78899 -0.579004 0)
(5.22699 -0.593825 0)
(5.69121 -0.591626 -3.14378e-20)
(6.16562 -0.567651 0)
(6.62406 -0.524978 -1.48165e-20)
(7.05023 -0.476636 4.22894e-20)
(7.43778 -0.434959 0)
(7.80153 -0.40555 0)
(8.15424 -0.377096 -2.41068e-20)
(8.484 -0.354091 -2.31974e-20)
(8.81292 -0.266242 2.15497e-20)
(9.16901 -0.0957583 2.12736e-20)
(-0.0527588 0.383633 -6.76486e-21)
(-0.208882 0.50329 -6.7344e-21)
(-0.330568 0.523538 -4.48955e-21)
(-0.446355 0.510979 -2.26098e-21)
(-0.554233 0.497184 0)
(-0.649553 0.501405 4.51296e-21)
(-0.717359 0.510551 -2.29053e-21)
(-0.748802 0.511344 0)
(-0.753828 0.501434 -2.23248e-21)
(-0.742663 0.479038 0)
(-0.719166 0.437188 4.52458e-21)
(-0.686147 0.368298 0)
(-0.649591 0.268652 2.21679e-21)
(-0.614799 0.143615 4.4118e-21)
(-0.574744 0.00174078 -4.37952e-21)
(-0.513268 -0.154888 0)
(-0.439324 -0.313135 -4.27578e-21)
(-0.383427 -0.432378 0)
(-0.343809 -0.501715 0)
(-0.287554 -0.564331 -4.09556e-21)
(-0.208602 -0.622689 0)
(-0.124498 -0.642281 -2.16694e-23)
(-0.0529647 -0.64785 0)
(0.0161796 -0.685349 0)
(0.0910046 -0.710152 3.33223e-23)
(0.164034 -0.680131 -3.89382e-21)
(0.245894 -0.629541 -3.94773e-21)
(0.346986 -0.580491 -3.90112e-21)
(0.45315 -0.520618 0)
(0.543905 -0.423831 -7.97847e-21)
(0.602244 -0.286832 0)
(0.617646 -0.119206 -4.09174e-21)
(0.588437 0.0634444 0)
(0.51732 0.243926 0)
(0.409027 0.409111 4.01063e-21)
(0.268578 0.550629 0)
(0.102064 0.663932 -3.89386e-21)
(-0.0826134 0.746233 1.06218e-22)
(-0.277624 0.796561 7.4695e-21)
(-0.476193 0.818795 -7.5055e-21)
(-0.674844 0.817879 0)
(-0.873176 0.80016 0)
(-1.06843 0.774777 -3.90561e-21)
(-1.2471 0.748946 0)
(-1.39668 0.721648 -3.56116e-21)
(-1.5264 0.686636 3.53592e-21)
(-1.65342 0.646171 3.49226e-21)
(-1.78279 0.612231 0)
(-1.91916 0.584563 -3.32546e-21)
(-2.07035 0.552434 -3.19831e-21)
(-2.23552 0.510361 6.75019e-21)
(-2.39772 0.450461 -2.847e-21)
(-2.5318 0.36303 -2.61543e-21)
(-2.64471 0.2432 0)
(-2.72795 0.10032 0)
(-2.73166 -0.0599221 1.71641e-21)
(-2.65705 -0.264037 0)
(-2.51396 -0.498479 0)
(-2.31184 -0.726806 -1.19807e-21)
(-2.05099 -0.913321 -4.77361e-22)
(-1.75175 -1.04071 0)
(-1.45329 -1.11694 0)
(-1.1692 -1.13565 0)
(-0.91539 -1.10123 0)
(-0.68224 -1.02729 2.53243e-21)
(-0.472811 -0.93356 -2.85739e-21)
(-0.28524 -0.827386 -3.57157e-21)
(-0.112198 -0.723564 -8.10144e-21)
(0.0422749 -0.649917 0)
(0.167929 -0.60193 -5.48434e-23)
(0.274629 -0.591058 0)
(0.349098 -0.616476 5.9545e-21)
(0.406705 -0.581889 -1.87785e-22)
(0.54591 -0.488783 6.54631e-21)
(0.701993 -0.533396 -6.77649e-21)
(0.773441 -0.579687 -1.98831e-22)
(0.796942 -0.443398 0)
(0.840263 -0.215502 -7.36396e-21)