/*--------------------------------*- C++ -*----------------------------------*\
  =========                 |
  \\      /  F ield         | OpenFOAM: The Open Source CFD Toolbox
   \\    /   O peration     | Website:  https://openfoam.org
    \\  /    A nd           | Version:  6
     \\/     M anipulation  |
\*---------------------------------------------------------------------------*/
FoamFile
{
    version     2.0;
    format      ascii;
    class       volSymmTensorField;
    location    "0.15";
    object      UPrime2Mean;
}
// * * * * * * * * * * * * * * * * * * * * * * * * * * * * * * * * * * * * * //

dimensions      [0 2 -2 0 0 0 0];

internalField   nonuniform List<symmTensor> 
12225
(
(0.027338 0.000212897 0 0.00380487 0 0)
(0.0138446 8.6906e-05 0 0.00214529 0 0)
(0.0127476 -6.38008e-05 0 0.00154167 0 0)
(0.0147787 -0.000173455 0 0.00117223 0 0)
(0.0174342 -0.000266085 0 0.000925601 0 0)
(0.021935 -0.000354655 0 0.000750937 0 0)
(0.0299633 -0.000579184 0 0.000630208 0 0)
(0.0420272 -0.000746136 0 0.00052938 0 0)
(0.0605554 -0.00148918 0 0.000489573 0 0)
(0.0845897 -0.0014633 0 0.000404005 0 0)
(0.12302 -0.00400985 0 0.000487381 0 0)
(0.168754 -0.00255176 0 0.000382699 0 0)
(0.253015 -0.0113601 0 0.000874538 0 0)
(0.345176 -0.00409386 0 0.000775271 0 0)
(0.550472 -0.0358244 0 0.00329333 0 0)
(0.767819 -0.00742106 0 0.00379198 0 0)
(1.3633 -0.133607 0 0.0198705 0 0)
(2.12377 -0.00980692 0 0.0129642 0 0)
(0.0310839 0.000350282 0 0.00316996 0 0)
(0.018046 0.00034254 0 0.00159812 0 0)
(0.0142221 0.000174824 0 0.00113612 0 0)
(0.0128406 8.14558e-05 0 0.000940206 0 0)
(0.0119781 3.27507e-05 0 0.000835674 0 0)
(0.0118177 -0.000101733 0 0.000778752 0 0)
(0.0126458 -0.000376881 0 0.000744287 0 0)
(0.0148064 -0.000898847 0 0.000774962 0 0)
(0.0186604 -0.00156388 0 0.000789881 0 0)
(0.0252556 -0.00282455 0 0.000972489 0 0)
(0.0352743 -0.00418459 0 0.00108329 0 0)
(0.0521815 -0.0073697 0 0.0016362 0 0)
(0.0766591 -0.0105769 0 0.00205383 0 0)
(0.12025 -0.0193036 0 0.0037339 0 0)
(0.181676 -0.0290335 0 0.00555721 0 0)
(0.304708 -0.0558802 0 0.0113809 0 0)
(0.471549 -0.0971327 0 0.0214356 0 0)
(0.844 -0.202649 0 0.0549374 0 0)
(0.0322542 0.000756759 0 0.00386899 0 0)
(0.0195941 0.000961301 0 0.00200059 0 0)
(0.0157825 0.000587108 0 0.00137289 0 0)
(0.0142881 0.000246335 0 0.0011106 0 0)
(0.0134177 1.55855e-05 0 0.000978548 0 0)
(0.0133343 -0.000190849 0 0.000921661 0 0)
(0.014146 -0.000489989 0 0.000931968 0 0)
(0.0159072 -0.000968815 0 0.000991197 0 0)
(0.0188171 -0.00176258 0 0.0011541 0 0)
(0.0232941 -0.00293415 0 0.00140489 0 0)
(0.0299874 -0.0048589 0 0.00190155 0 0)
(0.0400113 -0.0076536 0 0.00265038 0 0)
(0.0549614 -0.0124058 0 0.00412748 0 0)
(0.0773832 -0.0196499 0 0.00654646 0 0)
(0.111386 -0.0324092 0 0.0115941 0 0)
(0.161924 -0.0546138 0 0.0214399 0 0)
(0.236927 -0.0953505 0 0.0435998 0 0)
(0.323724 -0.182213 0 0.116056 0 0)
(0.0289891 0.000642829 0 0.00455291 0 0)
(0.016146 0.00047116 0 0.00257842 0 0)
(0.0129779 6.71272e-05 0 0.00181464 0 0)
(0.0121527 -0.000217431 0 0.00151015 0 0)
(0.0116273 -0.000437311 0 0.00139146 0 0)
(0.0116135 -0.000727521 0 0.00137186 0 0)
(0.0123861 -0.00118743 0 0.00142713 0 0)
(0.0141754 -0.00190876 0 0.00157577 0 0)
(0.0172172 -0.00298922 0 0.00185715 0 0)
(0.0219062 -0.00459467 0 0.00232537 0 0)
(0.0286736 -0.00700465 0 0.0031333 0 0)
(0.0385882 -0.0106094 0 0.00440174 0 0)
(0.0525969 -0.0163348 0 0.00671307 0 0)
(0.0730141 -0.0250252 0 0.0104796 0 0)
(0.101147 -0.0398004 0 0.0181538 0 0)
(0.139873 -0.0628891 0 0.0319099 0 0)
(0.186816 -0.103937 0 0.0643274 0 0)
(0.232981 -0.163997 0 0.12656 0 0)
(0.0336603 7.58203e-05 0 0.00455339 0 0)
(0.0196402 0.000543182 0 0.00258609 0 0)
(0.0153708 0.000214318 0 0.00182836 0 0)
(0.0139802 -0.000105155 0 0.00155673 0 0)
(0.0131695 -0.000336245 0 0.00147632 0 0)
(0.0129456 -0.000627926 0 0.00151997 0 0)
(0.0134705 -0.00110482 0 0.00167095 0 0)
(0.0148643 -0.00187392 0 0.00194901 0 0)
(0.0173442 -0.00305093 0 0.0024042 0 0)
(0.0212365 -0.00483198 0 0.00314388 0 0)
(0.0271016 -0.0075145 0 0.00431646 0 0)
(0.0356988 -0.0116267 0 0.00624111 0 0)
(0.048215 -0.017909 0 0.00940718 0 0)
(0.0657581 -0.0277428 0 0.0149098 0 0)
(0.0899134 -0.0430111 0 0.024594 0 0)
(0.120072 -0.0671065 0 0.0429612 0 0)
(0.155028 -0.103028 0 0.0764688 0 0)
(0.185945 -0.151226 0 0.137893 0 0)
(0.0312936 0.000452787 0 0.00520621 0 0)
(0.0176989 0.00024598 0 0.00307976 0 0)
(0.0144478 -7.36596e-05 0 0.00220479 0 0)
(0.0137197 -0.000424484 0 0.00192237 0 0)
(0.0132672 -0.000761661 0 0.00187816 0 0)
(0.013291 -0.00118738 0 0.00198046 0 0)
(0.0140386 -0.00182035 0 0.00221977 0 0)
(0.0156201 -0.00277306 0 0.00263185 0 0)
(0.0182043 -0.00419265 0 0.00330089 0 0)
(0.0220707 -0.00629322 0 0.00434854 0 0)
(0.0276789 -0.00942614 0 0.00600356 0 0)
(0.0356113 -0.0140736 0 0.00862401 0 0)
(0.0466948 -0.0210396 0 0.0128857 0 0)
(0.0615401 -0.0314077 0 0.019957 0 0)
(0.0807756 -0.046836 0 0.0319544 0 0)
(0.103334 -0.0692676 0 0.0527178 0 0)
(0.127617 -0.0998339 0 0.0874086 0 0)
(0.147738 -0.137472 0 0.144722 0 0)
(0.0293757 0.000369752 0 0.0051904 0 0)
(0.0170818 0.000504366 0 0.0032528 0 0)
(0.014044 7.75447e-05 0 0.00226499 0 0)
(0.0133086 -0.000400459 0 0.00196654 0 0)
(0.0127877 -0.000818389 0 0.00197396 0 0)
(0.0125957 -0.00131958 0 0.00218143 0 0)
(0.0129226 -0.00203572 0 0.00257663 0 0)
(0.0139354 -0.00308148 0 0.00320002 0 0)
(0.0158957 -0.00461269 0 0.0041444 0 0)
(0.0191067 -0.00686176 0 0.00558312 0 0)
(0.0239345 -0.0101741 0 0.00778566 0 0)
(0.0307452 -0.0150325 0 0.0112198 0 0)
(0.0400037 -0.0221154 0 0.016616 0 0)
(0.0518781 -0.0323361 0 0.0253005 0 0)
(0.0664546 -0.0467903 0 0.0392273 0 0)
(0.0825462 -0.0664677 0 0.0618013 0 0)
(0.0987725 -0.0914794 0 0.0967737 0 0)
(0.111233 -0.119965 0 0.149715 0 0)
(0.0314211 -0.000201629 0 0.00597529 0 0)
(0.01851 0.000217878 0 0.00396535 0 0)
(0.015078 -9.28128e-05 0 0.00296303 0 0)
(0.0141403 -0.000538272 0 0.00265525 0 0)
(0.0134689 -0.000896791 0 0.00269695 0 0)
(0.0131607 -0.00134557 0 0.00297643 0 0)
(0.013419 -0.00207389 0 0.00347724 0 0)
(0.0143845 -0.00321335 0 0.00426489 0 0)
(0.0162476 -0.00491 0 0.00547165 0 0)
(0.0192103 -0.00737083 0 0.0073106 0 0)
(0.0235241 -0.0109039 0 0.0100899 0 0)
(0.0293985 -0.0159309 0 0.014333 0 0)
(0.0371018 -0.0230158 0 0.0208049 0 0)
(0.0465678 -0.0328234 0 0.0308352 0 0)
(0.0576625 -0.0460293 0 0.0461504 0 0)
(0.0692084 -0.06299 0 0.0696006 0 0)
(0.0802462 -0.0832637 0 0.103798 0 0)
(0.0880457 -0.104816 0 0.152685 0 0)
(0.0326752 0.000467733 0 0.00631295 0 0)
(0.019652 0.000387515 0 0.0042729 0 0)
(0.0161146 -5.79761e-05 0 0.00312904 0 0)
(0.0150328 -0.000628565 0 0.002776 0 0)
(0.014368 -0.00110178 0 0.00284256 0 0)
(0.0142827 -0.00160769 0 0.00320733 0 0)
(0.0148632 -0.00235849 0 0.00386675 0 0)
(0.0160502 -0.00353098 0 0.00489672 0 0)
(0.0178593 -0.00529088 0 0.00644169 0 0)
(0.0204064 -0.0078382 0 0.00874517 0 0)
(0.0239002 -0.0114453 0 0.0121576 0 0)
(0.0285319 -0.0164711 0 0.0172498 0 0)
(0.0344723 -0.0233471 0 0.024797 0 0)
(0.0415996 -0.0325125 0 0.0360537 0 0)
(0.0496114 -0.0442846 0 0.052493 0 0)
(0.0576132 -0.0586013 0 0.0763897 0 0)
(0.0647259 -0.0746918 0 0.109509 0 0)
(0.0694341 -0.0907116 0 0.154445 0 0)
(0.0314578 -0.000475368 0 0.00604349 0 0)
(0.0181385 -0.000190143 0 0.00429485 0 0)
(0.0147079 -0.000500997 0 0.00333474 0 0)
(0.0139306 -0.000870549 0 0.00311271 0 0)
(0.0134117 -0.00116999 0 0.00333338 0 0)
(0.0132002 -0.00160254 0 0.00385508 0 0)
(0.0134465 -0.00234569 0 0.00469009 0 0)
(0.0142033 -0.00352214 0 0.00595351 0 0)
(0.0155479 -0.00525762 0 0.00782546 0 0)
(0.0175474 -0.00771869 0 0.0105754 0 0)
(0.0202849 -0.0111298 0 0.0145668 0 0)
(0.0237817 -0.0157667 0 0.0203692 0 0)
(0.0280481 -0.0219152 0 0.028718 0 0)
(0.0328586 -0.0298026 0 0.0407386 0 0)
(0.0378927 -0.0394525 0 0.0576264 0 0)
(0.0424316 -0.0505629 0 0.0811621 0 0)
(0.0459485 -0.0622259 0 0.112404 0 0)
(0.0475693 -0.0729045 0 0.153092 0 0)
(0.030475 -0.000106107 0 0.00685269 0 0)
(0.017783 -0.000146409 0 0.00536171 0 0)
(0.0148364 -0.000950791 0 0.00435752 0 0)
(0.0144458 -0.00169588 0 0.00404784 0 0)
(0.0142477 -0.00219272 0 0.00425269 0 0)
(0.0143154 -0.00271736 0 0.00487501 0 0)
(0.014819 -0.00355123 0 0.00591203 0 0)
(0.0157657 -0.00486142 0 0.00746501 0 0)
(0.0171473 -0.00675756 0 0.00971421 0 0)
(0.0189623 -0.00934501 0 0.012943 0 0)
(0.0212511 -0.012768 0 0.0175256 0 0)
(0.0239774 -0.0171781 0 0.0240144 0 0)
(0.0271225 -0.022728 0 0.0330656 0 0)
(0.0303986 -0.0294235 0 0.045645 0 0)
(0.0335705 -0.0371375 0 0.0626452 0 0)
(0.036066 -0.0453403 0 0.0854157 0 0)
(0.0377568 -0.0532641 0 0.114465 0 0)
(0.0381219 -0.0594903 0 0.151036 0 0)
(0.0304941 9.37599e-05 0 0.00695298 0 0)
(0.0180122 -2.34493e-06 0 0.00518727 0 0)
(0.0147292 -0.000411483 0 0.00404166 0 0)
(0.013948 -0.000863661 0 0.00376205 0 0)
(0.0133731 -0.00126008 0 0.00410958 0 0)
(0.0129801 -0.00176155 0 0.00489231 0 0)
(0.0129234 -0.00253314 0 0.00607952 0 0)
(0.0132887 -0.0036926 0 0.0077987 0 0)
(0.0141013 -0.00533677 0 0.0102677 0 0)
(0.0153207 -0.00756297 0 0.01379 0 0)
(0.0169032 -0.0104921 0 0.0187268 0 0)
(0.0187687 -0.0142326 0 0.0255929 0 0)
(0.0208586 -0.0188618 0 0.0349528 0 0)
(0.0229762 -0.0242973 0 0.0476214 0 0)
(0.0249327 -0.030331 0 0.0642423 0 0)
(0.0264005 -0.0364455 0 0.085845 0 0)
(0.0273084 -0.0419438 0 0.11256 0 0)
(0.0274978 -0.0457558 0 0.145345 0 0)
(0.0315869 -0.000358047 0 0.00774927 0 0)
(0.0183856 -0.000513025 0 0.00616509 0 0)
(0.0148252 -0.00132593 0 0.00501008 0 0)
(0.0141272 -0.002083 0 0.00475967 0 0)
(0.0138094 -0.00251038 0 0.00514728 0 0)
(0.0136516 -0.00284397 0 0.00603204 0 0)
(0.0136459 -0.00339278 0 0.00740761 0 0)
(0.0138428 -0.00436728 0 0.00938931 0 0)
(0.0143479 -0.00586387 0 0.01218 0 0)
(0.0152167 -0.00790669 0 0.0160727 0 0)
(0.0164026 -0.0105083 0 0.0214068 0 0)
(0.0177695 -0.0136778 0 0.0286464 0 0)
(0.0191592 -0.0173978 0 0.0382594 0 0)
(0.0203776 -0.0215233 0 0.0509066 0 0)
(0.0212599 -0.0257958 0 0.0670244 0 0)
(0.0217261 -0.0297511 0 0.0873873 0 0)
(0.0217742 -0.0327719 0 0.111896 0 0)
(0.0215701 -0.0340712 0 0.14128 0 0)
(0.0327105 -0.00018175 0 0.00808689 0 0)
(0.0193358 -0.000634168 0 0.00679901 0 0)
(0.0155585 -0.00119624 0 0.00556767 0 0)
(0.0148036 -0.00168495 0 0.00529695 0 0)
(0.0144107 -0.00196847 0 0.00569957 0 0)
(0.0141077 -0.00223163 0 0.00665102 0 0)
(0.0139776 -0.00271459 0 0.00817241 0 0)
(0.0140456 -0.0035646 0 0.0103671 0 0)
(0.0143121 -0.00482639 0 0.0134063 0 0)
(0.0147379 -0.00647875 0 0.0175497 0 0)
(0.0152413 -0.00848623 0 0.0230944 0 0)
(0.0157065 -0.0107982 0 0.0304415 0 0)
(0.0160423 -0.0133377 0 0.0399562 0 0)
(0.0161605 -0.0159176 0 0.0521614 0 0)
(0.0160064 -0.0182825 0 0.0673005 0 0)
(0.0155867 -0.0200101 0 0.0859602 0 0)
(0.0150154 -0.0206302 0 0.107839 0 0)
(0.0144853 -0.0195268 0 0.13356 0 0)
(0.0318806 0.000951398 0 0.00884008 0 0)
(0.0178737 0.000411419 0 0.00775946 0 0)
(0.0139353 -0.00052849 0 0.00636832 0 0)
(0.0131069 -0.00125107 0 0.00609712 0 0)
(0.0124661 -0.0015533 0 0.00665515 0 0)
(0.0117917 -0.00173549 0 0.00779332 0 0)
(0.0113474 -0.00211257 0 0.00947831 0 0)
(0.0112474 -0.00282605 0 0.0118335 0 0)
(0.0114328 -0.00385738 0 0.015045 0 0)
(0.0117548 -0.00511368 0 0.0193538 0 0)
(0.0120675 -0.00651327 0 0.0250031 0 0)
(0.0122756 -0.00796769 0 0.0323046 0 0)
(0.012364 -0.00938064 0 0.0415017 0 0)
(0.0123375 -0.0105489 0 0.0529662 0 0)
(0.0122317 -0.0112525 0 0.0667643 0 0)
(0.0120985 -0.0111291 0 0.0833147 0 0)
(0.0121479 -0.00986138 0 0.1022 0 0)
(0.0124664 -0.00699545 0 0.123941 0 0)
(0.0311208 0.000149203 0 0.00977309 0 0)
(0.0178044 -0.000132625 0 0.00887889 0 0)
(0.0141352 -0.000903208 0 0.0075464 0 0)
(0.0132374 -0.00143371 0 0.00712435 0 0)
(0.0125633 -0.00153139 0 0.00755367 0 0)
(0.0119214 -0.00150424 0 0.00871465 0 0)
(0.0114559 -0.0016234 0 0.0105222 0 0)
(0.0111684 -0.00195936 0 0.0130026 0 0)
(0.0109884 -0.00243419 0 0.0162827 0 0)
(0.0108386 -0.00292116 0 0.0205653 0 0)
(0.010677 -0.00332424 0 0.026042 0 0)
(0.0104993 -0.00355517 0 0.0329436 0 0)
(0.0103669 -0.00352431 0 0.0414095 0 0)
(0.0103415 -0.00306312 0 0.0516773 0 0)
(0.0104835 -0.00198923 0 0.063689 0 0)
(0.0109025 -5.01429e-05 0 0.077738 0 0)
(0.0117294 0.00296581 0 0.0933661 0 0)
(0.0131598 0.0073173 0 0.111008 0 0)
(0.0335143 0.000490446 0 0.00998825 0 0)
(0.0195161 4.74662e-05 0 0.0094853 0 0)
(0.014613 -0.000878864 0 0.00809344 0 0)
(0.0129906 -0.00116745 0 0.00764328 0 0)
(0.0121081 -0.000886631 0 0.00808643 0 0)
(0.0115306 -0.000480672 0 0.00926314 0 0)
(0.0110769 -0.000241304 0 0.0110708 0 0)
(0.0106249 -0.000194877 0 0.0135181 0 0)
(0.0102036 -0.000205726 0 0.0167031 0 0)
(0.00988208 -0.000104674 0 0.0207829 0 0)
(0.00967365 0.000224793 0 0.0258871 0 0)
(0.00957897 0.000884417 0 0.0321565 0 0)
(0.00962246 0.00194977 0 0.039636 0 0)
(0.00988004 0.0035693 0 0.0484575 0 0)
(0.0104199 0.00584038 0 0.058487 0 0)
(0.0113893 0.00896123 0 0.0699371 0 0)
(0.0128975 0.0129767 0 0.0823647 0 0)
(0.0151254 0.0181299 0 0.0961403 0 0)
(0.0306229 0.000977848 0 0.0105609 0 0)
(0.0170868 -7.6915e-07 0 0.00998485 0 0)
(0.0128712 -0.00115467 0 0.00862983 0 0)
(0.0113497 -0.00144761 0 0.00817333 0 0)
(0.010252 -0.00115569 0 0.00857492 0 0)
(0.00942076 -0.000705457 0 0.00965579 0 0)
(0.00889303 -0.000315471 0 0.0112781 0 0)
(0.00861578 1.24887e-05 0 0.0134222 0 0)
(0.00855492 0.00039897 0 0.0161483 0 0)
(0.00866944 0.000994512 0 0.0195649 0 0)
(0.00889906 0.0019059 0 0.0237493 0 0)
(0.00923255 0.00321909 0 0.0287819 0 0)
(0.00973291 0.00498395 0 0.0346564 0 0)
(0.0105261 0.00730091 0 0.0414423 0 0)
(0.011713 0.0102158 0 0.0489993 0 0)
(0.0134568 0.0138655 0 0.0574727 0 0)
(0.0158227 0.018229 0 0.0665069 0 0)
(0.0189856 0.0234906 0 0.0763711 0 0)
(0.0300363 0.000777761 0 0.0105547 0 0)
(0.0177994 0.000393931 0 0.0102784 0 0)
(0.0136179 -0.000287082 0 0.0087608 0 0)
(0.011585 -0.000208065 0 0.00810058 0 0)
(0.0102474 0.000327314 0 0.00829497 0 0)
(0.00940793 0.000894978 0 0.00913561 0 0)
(0.00891934 0.0013649 0 0.010476 0 0)
(0.00871347 0.00182725 0 0.012259 0 0)
(0.00881544 0.00246115 0 0.014484 0 0)
(0.00920844 0.00341912 0 0.0171865 0 0)
(0.00982488 0.00476857 0 0.020389 0 0)
(0.0106477 0.006537 0 0.0241285 0 0)
(0.0117199 0.00871916 0 0.0283885 0 0)
(0.0131504 0.0113564 0 0.0332048 0 0)
(0.0150065 0.0144506 0 0.0384605 0 0)
(0.0174243 0.0180859 0 0.0442668 0 0)
(0.0204354 0.0222189 0 0.050362 0 0)
(0.0241793 0.0269743 0 0.0569261 0 0)
(0.0316678 0.000399843 0 0.0110179 0 0)
(0.0167574 0.000774749 0 0.00925625 0 0)
(0.0124612 0.00011891 0 0.00701896 0 0)
(0.0111564 -4.06527e-05 0 0.00629466 0 0)
(0.0105211 0.000284622 0 0.0063581 0 0)
(0.0103515 0.00074093 0 0.00689604 0 0)
(0.0103028 0.00119041 0 0.00781366 0 0)
(0.0102017 0.00170523 0 0.00906157 0 0)
(0.0101735 0.00243706 0 0.0106141 0 0)
(0.0103841 0.0035064 0 0.0124773 0 0)
(0.0109138 0.00495644 0 0.0146585 0 0)
(0.0118133 0.00678916 0 0.017171 0 0)
(0.0131225 0.00898125 0 0.0199909 0 0)
(0.0149051 0.0115401 0 0.023131 0 0)
(0.0171772 0.0144552 0 0.0265096 0 0)
(0.0200196 0.0177577 0 0.0301955 0 0)
(0.0234373 0.0214254 0 0.034036 0 0)
(0.0274987 0.0255124 0 0.0381333 0 0)
(0.0302924 0.000149053 0 0.0100457 0 0)
(0.0166188 0.000390059 0 0.00834248 0 0)
(0.0131115 4.37393e-05 0 0.00643058 0 0)
(0.0119962 -3.26775e-05 0 0.00590287 0 0)
(0.0113875 0.000239684 0 0.00602458 0 0)
(0.0112889 0.000717235 0 0.00647472 0 0)
(0.0114575 0.0013388 0 0.00715496 0 0)
(0.0117221 0.00213208 0 0.00804302 0 0)
(0.0121534 0.00314123 0 0.00914852 0 0)
(0.0128678 0.00438712 0 0.0104916 0 0)
(0.0139352 0.00587311 0 0.012073 0 0)
(0.0154169 0.00761462 0 0.0138857 0 0)
(0.0173688 0.00962858 0 0.0158973 0 0)
(0.019851 0.0119546 0 0.018108 0 0)
(0.0228662 0.0145935 0 0.0204563 0 0)
(0.0264654 0.0175633 0 0.0229986 0 0)
(0.0306425 0.0208261 0 0.0256324 0 0)
(0.0354158 0.024395 0 0.028422 0 0)
(0.0317819 0.00105184 0 0.00963401 0 0)
(0.0186606 0.00106718 0 0.00815019 0 0)
(0.0152023 0.000715501 0 0.00625428 0 0)
(0.0138432 0.000673243 0 0.00552267 0 0)
(0.0127738 0.000919647 0 0.00541206 0 0)
(0.0122077 0.00131854 0 0.0056059 0 0)
(0.0120559 0.00183245 0 0.0059742 0 0)
(0.012195 0.00249088 0 0.00648226 0 0)
(0.0126752 0.00331845 0 0.00713531 0 0)
(0.0135716 0.0043327 0 0.00794715 0 0)
(0.014889 0.00555529 0 0.00891891 0 0)
(0.0166218 0.00701745 0 0.0100479 0 0)
(0.0187745 0.00873365 0 0.0113147 0 0)
(0.0213988 0.0107245 0 0.0127188 0 0)
(0.0245096 0.0129719 0 0.0142159 0 0)
(0.0281856 0.0154749 0 0.015849 0 0)
(0.0324436 0.0182032 0 0.0175487 0 0)
(0.0373062 0.021159 0 0.0193332 0 0)
(0.0315504 0.000725994 0 0.00959674 0 0)
(0.0183514 0.000186926 0 0.00769323 0 0)
(0.0148297 -0.000138619 0 0.00557431 0 0)
(0.0136759 -0.000112596 0 0.00468046 0 0)
(0.0129348 0.000182354 0 0.00447715 0 0)
(0.0126226 0.000611878 0 0.00459719 0 0)
(0.012603 0.00110648 0 0.00487803 0 0)
(0.0127759 0.00167922 0 0.00525777 0 0)
(0.0132355 0.00236935 0 0.00573053 0 0)
(0.0141028 0.0032154 0 0.00631012 0 0)
(0.0154172 0.00425041 0 0.00699804 0 0)
(0.0171851 0.00550055 0 0.00778784 0 0)
(0.0194309 0.00697222 0 0.00866417 0 0)
(0.0222042 0.00867115 0 0.0096233 0 0)
(0.0255231 0.0105796 0 0.0106356 0 0)
(0.0294225 0.0126866 0 0.011739 0 0)
(0.0339092 0.014969 0 0.0128845 0 0)
(0.0389283 0.0174138 0 0.0140741 0 0)
(0.0337505 0.000681168 0 0.00788597 0 0)
(0.0203369 0.000703712 0 0.00601559 0 0)
(0.0164614 0.000555525 0 0.00435405 0 0)
(0.0147332 0.000622608 0 0.00359235 0 0)
(0.0136345 0.000859326 0 0.00328593 0 0)
(0.0133478 0.00122009 0 0.00322815 0 0)
(0.0136636 0.0016767 0 0.00331698 0 0)
(0.0143208 0.00222336 0 0.00349433 0 0)
(0.0152726 0.00286829 0 0.00374218 0 0)
(0.016572 0.00362984 0 0.00406464 0 0)
(0.0182537 0.00452425 0 0.00446334 0 0)
(0.0203484 0.00556588 0 0.0049336 0 0)
(0.0229061 0.00676054 0 0.00546444 0 0)
(0.0259945 0.00811957 0 0.00605075 0 0)
(0.0296275 0.00963677 0 0.00667056 0 0)
(0.0338583 0.0113162 0 0.0073482 0 0)
(0.0386788 0.0131404 0 0.00805353 0 0)
(0.044038 0.015104 0 0.00878757 0 0)
(0.0300785 2.90104e-05 0 0.00769493 0 0)
(0.0174851 0.000562445 0 0.00576655 0 0)
(0.0143865 0.000641347 0 0.00420923 0 0)
(0.0134035 0.000624875 0 0.00350319 0 0)
(0.012676 0.000663622 0 0.00327584 0 0)
(0.0122966 0.000850624 0 0.00326867 0 0)
(0.0122635 0.00116394 0 0.00334554 0 0)
(0.0125257 0.00155928 0 0.00345279 0 0)
(0.0131412 0.00202044 0 0.00358725 0 0)
(0.014184 0.00256311 0 0.00376496 0 0)
(0.0156701 0.00321617 0 0.00399598 0 0)
(0.0176001 0.00400825 0 0.00427834 0 0)
(0.0199937 0.00495022 0 0.00460337 0 0)
(0.0228952 0.00604649 0 0.00496729 0 0)
(0.0263133 0.00727755 0 0.00535093 0 0)
(0.0303064 0.00863551 0 0.00577806 0 0)
(0.0348725 0.0100998 0 0.00622551 0 0)
(0.0400025 0.0116613 0 0.0066761 0 0)
(0.032458 -0.000119478 0 0.00674484 0 0)
(0.0195394 -0.000172804 0 0.0045278 0 0)
(0.0163389 -0.000262789 0 0.0033057 0 0)
(0.0153864 -0.000200123 0 0.00273063 0 0)
(0.0146106 -6.88689e-05 0 0.00247287 0 0)
(0.014139 0.000108202 0 0.00238858 0 0)
(0.0140678 0.00031244 0 0.00237634 0 0)
(0.0143458 0.000556503 0 0.00238584 0 0)
(0.0149739 0.000868106 0 0.00241201 0 0)
(0.0159792 0.00126802 0 0.00246927 0 0)
(0.0173695 0.00176457 0 0.00256459 0 0)
(0.0191679 0.00236029 0 0.00269388 0 0)
(0.0214241 0.00305259 0 0.00285008 0 0)
(0.0242074 0.00384209 0 0.0030308 0 0)
(0.027531 0.0047248 0 0.00322666 0 0)
(0.0314369 0.0057005 0 0.00345386 0 0)
(0.0359287 0.00676222 0 0.00369676 0 0)
(0.0409294 0.0079056 0 0.00394398 0 0)
(0.0308304 -0.000315735 0 0.00558781 0 0)
(0.0184182 -0.000261814 0 0.00372789 0 0)
(0.0155746 2.10317e-06 0 0.00267855 0 0)
(0.0146702 0.00017774 0 0.00219059 0 0)
(0.013968 0.000274824 0 0.0019882 0 0)
(0.0136927 0.000388041 0 0.00191192 0 0)
(0.0138788 0.000544692 0 0.00187748 0 0)
(0.0143942 0.000752936 0 0.00185717 0 0)
(0.0152294 0.0010188 0 0.00185209 0 0)
(0.0164503 0.00134159 0 0.00186941 0 0)
(0.0181022 0.00172158 0 0.00191167 0 0)
(0.0202173 0.00216705 0 0.00197694 0 0)
(0.022839 0.00268704 0 0.00206183 0 0)
(0.0260121 0.00328721 0 0.00216404 0 0)
(0.0297396 0.00396175 0 0.00227478 0 0)
(0.0340466 0.00470455 0 0.00240632 0 0)
(0.0389293 0.00550475 0 0.00254746 0 0)
(0.044305 0.00636233 0 0.00268653 0 0)
(0.0323869 -0.000225901 0 0.00488234 0 0)
(0.0193148 -0.000421102 0 0.00283938 0 0)
(0.0160668 -0.000244393 0 0.00205355 0 0)
(0.0150275 -9.2543e-05 0 0.00172097 0 0)
(0.0141697 -2.15725e-05 0 0.00156323 0 0)
(0.0137127 1.43203e-05 0 0.00147579 0 0)
(0.0138139 7.0261e-05 0 0.00140884 0 0)
(0.0143874 0.000192242 0 0.00134872 0 0)
(0.0153599 0.000387746 0 0.00129754 0 0)
(0.0167103 0.000632458 0 0.00126031 0 0)
(0.0184378 0.000903073 0 0.00123992 0 0)
(0.0205791 0.00119661 0 0.00123597 0 0)
(0.0232035 0.00152346 0 0.00124787 0 0)
(0.0263792 0.00189725 0 0.00127524 0 0)
(0.0301114 0.00232207 0 0.00131256 0 0)
(0.0344252 0.00279738 0 0.00136793 0 0)
(0.0393066 0.00332019 0 0.00143529 0 0)
(0.0446693 0.00388888 0 0.00150394 0 0)
(0.0332765 -0.00019736 0 0.00395694 0 0)
(0.0218408 -0.000499882 0 0.00234824 0 0)
(0.0179491 -0.000453374 0 0.00176684 0 0)
(0.0162458 -0.000303317 0 0.00148841 0 0)
(0.0154793 -0.000220933 0 0.00132461 0 0)
(0.0154439 -0.000236467 0 0.00121596 0 0)
(0.0157956 -0.000295085 0 0.0011327 0 0)
(0.0163034 -0.000323249 0 0.00106431 0 0)
(0.0170298 -0.000285204 0 0.00100889 0 0)
(0.0181625 -0.000188508 0 0.000965612 0 0)
(0.0198207 -5.26239e-05 0 0.000932142 0 0)
(0.0220347 0.000114879 0 0.000906137 0 0)
(0.0247875 0.000319132 0 0.000887389 0 0)
(0.0280823 0.000568395 0 0.000875397 0 0)
(0.0318757 0.000867718 0 0.000868309 0 0)
(0.0362563 0.00121439 0 0.000871659 0 0)
(0.0412389 0.00160831 0 0.000878915 0 0)
(0.0468179 0.00203717 0 0.000885438 0 0)
(0.0311048 0.000102478 0 0.00396892 0 0)
(0.0189092 0.000442737 0 0.00216067 0 0)
(0.0161059 0.00042151 0 0.00158178 0 0)
(0.0149263 0.000375349 0 0.00128515 0 0)
(0.0138993 0.000308939 0 0.00109455 0 0)
(0.013492 0.000254444 0 0.000959073 0 0)
(0.0137765 0.000236269 0 0.000858071 0 0)
(0.0145369 0.000251825 0 0.000779767 0 0)
(0.0156821 0.000279862 0 0.000716979 0 0)
(0.0172477 0.000301003 0 0.000665452 0 0)
(0.0192906 0.000314304 0 0.000622607 0 0)
(0.0218893 0.000333455 0 0.000586643 0 0)
(0.0251414 0.00037351 0 0.000556573 0 0)
(0.0291598 0.000440988 0 0.000530339 0 0)
(0.0340155 0.000535918 0 0.000506417 0 0)
(0.0398384 0.000650374 0 0.00049046 0 0)
(0.0466285 0.000780187 0 0.000475458 0 0)
(0.0544042 0.000924243 0 0.000453375 0 0)
(0.0124034 -0.006282 1.89109e-22 0.0115924 -1.86826e-22 7.73662e-38)
(0.0625438 -0.00485721 -4.20551e-22 0.0167237 6.36775e-23 7.62799e-38)
(0.141765 -0.00660959 0 0.0310346 0 0)
(0.242481 -0.0139671 0 0.058297 0 0)
(0.333123 -0.0332718 0 0.0886397 0 0)
(0.453622 -0.0724797 5.0795e-22 0.114558 1.78647e-22 7.18503e-38)
(0.641109 -0.126689 0 0.131908 0 0)
(0.913154 -0.187936 0 0.13712 0 0)
(1.27608 -0.245519 0 0.131958 0 0)
(1.7223 -0.291166 0 0.119511 0 0)
(2.23587 -0.319449 9.06925e-23 0.102222 -8.7151e-23 6.65406e-38)
(2.79117 -0.323832 0 0.0805857 0 0)
(3.3475 -0.302348 0 0.0626007 0 0)
(3.86887 -0.269558 0 0.0511966 0 0)
(4.33752 -0.231724 0 0.0434489 0 0)
(4.73851 -0.186046 3.5583e-22 0.037815 8.60574e-23 6.14994e-38)
(5.05805 -0.13365 0 0.0342922 0 0)
(5.29065 -0.0794349 0 0.0338698 0 0)
(5.43994 -0.0309997 0 0.0364638 0 0)
(5.515 0.00513243 0 0.0408115 0 0)
(5.53529 0.0244661 0 0.0460264 0 0)
(5.52487 0.0333458 0 0.0519498 0 0)
(5.49526 0.0422385 0 0.0596721 0 0)
(5.43048 0.0507468 -1.55602e-21 0.0710267 2.96266e-22 5.39814e-38)
(5.3659 0.0488204 1.93833e-21 0.0823901 -2.80541e-22 5.30879e-38)
(5.29286 0.0413723 -2.31698e-21 0.0953301 2.2489e-22 5.22043e-38)
(5.25633 0.0307017 -2.67447e-21 0.12281 1.59628e-22 5.13307e-38)
(5.2568 -0.0136803 0 0.134308 0 0)
(5.33493 -0.0372434 0 0.129458 0 0)
(5.45157 -0.0779563 3.63774e-21 0.125226 -2.60093e-23 4.87695e-38)
(5.64764 -0.145194 3.97951e-21 0.133295 -1.59502e-22 4.79352e-38)
(5.94752 -0.207962 0 0.134373 0 0)
(6.35842 -0.261485 0 0.134031 0 0)
(6.86657 -0.296118 5.25983e-21 0.12983 -1.80537e-22 4.54924e-38)
(7.43102 -0.31272 0 0.128591 0 0)
(8.02218 -0.318562 0 0.130196 0 0)
(8.61315 -0.322177 -6.67055e-21 0.135322 1.56847e-22 4.3141e-38)
(9.20114 -0.336236 0 0.145456 0 0)
(9.80027 -0.347722 -7.63807e-21 0.151686 1.51185e-22 4.16239e-38)
(10.3728 -0.358521 -1.62575e-20 0.14005 3.39072e-22 1.63521e-37)
(10.97 -0.358736 0 0.131071 0 0)
(11.5367 -0.347847 0 0.125887 0 0)
(12.1511 -0.395321 0 0.0976525 0 0)
(12.8308 -0.415199 0 0.0977768 0 0)
(13.4544 -0.383293 0 0.106492 0 0)
(14.1321 -0.384951 -2.10138e-20 0.118553 2.54278e-22 1.46495e-37)
(14.7077 -0.407306 -2.14033e-20 0.132187 1.70334e-22 1.43793e-37)
(15.3403 -0.422673 -2.16727e-20 0.138311 1.29018e-22 1.41129e-37)
(15.8622 -0.356364 0 0.141473 0 0)
(16.2874 -0.36614 2.23222e-20 0.153836 -3.43668e-22 1.35914e-37)
(16.85 -0.387229 0 0.127751 0 0)
(17.4045 -0.364702 -2.29382e-20 0.101409 3.25892e-22 1.30851e-37)
(17.8957 -0.361223 -2.3271e-20 0.10265 3.58146e-22 1.28376e-37)
(18.4099 -0.28681 0 0.0911524 0 0)
(18.7812 -0.297031 0 0.121732 0 0)
(19.2534 -0.29577 0 0.117358 0 0)
(19.7246 -0.306752 -2.49912e-20 0.124906 2.41672e-22 1.18839e-37)
(20.3651 -0.322238 0 0.104536 0 0)
(21.128 -0.327929 0 0.0942481 0 0)
(21.9126 -0.338362 0 0.0935391 0 0)
(22.7396 -0.355489 0 0.0913652 0 0)
(23.6037 -0.35928 0 0.0890549 0 0)
(24.4214 -0.350021 0 0.0842319 0 0)
(25.1617 -0.345151 0 0.0719238 0 0)
(25.9537 -0.344875 0 0.0692398 0 0)
(26.7283 -0.318058 3.15881e-20 0.0651677 -3.87011e-22 9.94342e-38)
(27.414 -0.276542 0 0.0621065 0 0)
(27.9593 -0.244391 0 0.0612824 0 0)
(28.4106 -0.232982 -3.30011e-20 0.0656095 4.14913e-22 9.35621e-38)
(28.6365 -0.17505 -3.3217e-20 0.0555499 3.60185e-22 9.16677e-38)
(28.6675 -0.138387 0 0.0544792 0 0)
(28.492 0.0186113 3.3191e-20 0.0479436 -1.75219e-22 8.79712e-38)
(27.9328 0.107655 -3.26962e-20 0.0823887 4.20226e-23 8.61684e-38)
(27.4906 0.123912 0 0.085067 0 0)
(27.0491 0.0921447 3.14077e-20 0.0947775 9.54672e-23 8.26513e-38)
(26.6903 0.0197531 0 0.102127 0 0)
(26.4507 -0.0226073 0 0.106819 0 0)
(26.1902 -0.0575072 -3.02788e-20 0.124978 1.73607e-22 7.75931e-38)
(26.0076 -0.0758416 0 0.114461 0 0)
(25.8817 -0.143532 2.97314e-20 0.106203 -9.85442e-23 7.43625e-38)
(26.0532 -0.161334 0 0.0878282 0 0)
(26.2188 -0.139988 -2.9802e-20 0.0845306 1.77124e-22 7.12422e-38)
(26.4711 -0.123926 -2.99243e-20 0.0794574 1.88806e-22 6.97225e-38)
(26.8381 -0.117954 -3.01353e-20 0.0747922 2.18318e-22 6.82294e-38)
(27.3182 -0.12569 -6.0803e-20 0.0692193 4.51073e-22 2.6705e-37)
(27.89 -0.134851 6.13937e-20 0.0636653 -4.65263e-22 2.61286e-37)
(28.513 -0.15916 0 0.055417 0 0)
(29.1296 -0.160407 0 0.0484942 0 0)
(29.7177 -0.170801 0 0.0393889 0 0)
(30.2081 -0.119306 6.35053e-20 0.0335383 -4.37153e-22 2.39228e-37)
(30.3009 -0.00947958 6.3556e-20 0.0457255 -3.40213e-22 2.33953e-37)
(30.2318 -0.0147673 -6.32404e-20 0.0436949 2.87634e-22 2.28772e-37)
(30.4224 0.0303912 0 0.0448694 0 0)
(30.0425 0.0532784 6.15506e-20 0.0746207 -4.98497e-23 2.18682e-37)
(29.9751 -0.0200057 6.01284e-20 0.0744968 -2.36983e-23 2.13771e-37)
(30.1604 -0.0593508 5.86728e-20 0.0681527 -3.9156e-23 2.08949e-37)
(30.4747 -0.0662722 0 0.0612642 0 0)
(30.7549 -0.0411507 0 0.056315 0 0)
(30.8856 -0.0043084 0 0.0537692 0 0)
(30.7694 0.0396623 5.26082e-20 0.0519752 -3.20836e-24 1.90517e-37)
(30.405 0.105914 0 0.0423144 0 0)
(29.7575 0.161674 0 0.0376592 0 0)
(28.9824 0.184982 -4.59729e-20 0.0370778 -2.10495e-23 1.77556e-37)
(27.8982 0.233647 0 0.0399126 0 0)
(26.7256 0.21053 0 0.0460814 0 0)
(25.5697 0.266007 -3.87252e-20 0.0605783 -1.30595e-22 1.65301e-37)
(24.3439 0.120699 0 0.102874 0 0)
(23.8203 0.00268288 0 0.0921639 0 0)
(23.7267 -0.058569 3.38875e-20 0.0899733 -1.8987e-22 1.53719e-37)
(23.9976 -0.105752 3.43002e-20 0.0911986 -3.48924e-22 1.50006e-37)
(24.5541 -0.154194 0 0.0830824 0 0)
(25.3532 -0.185902 -3.69877e-20 0.0715839 5.77288e-22 1.42791e-37)
(26.2913 -0.205636 0 0.0603428 0 0)
(27.2884 -0.204003 4.06093e-20 0.0503955 -5.15238e-22 1.3585e-37)
(28.234 -0.18282 0 0.0429947 0 0)
(29.0542 -0.146049 4.35609e-20 0.0374894 -5.00408e-22 1.29169e-37)
(29.6781 -0.101377 4.45246e-20 0.033971 -4.52071e-22 1.25924e-37)
(30.0767 -0.0544828 0 0.0313874 0 0)
(30.2421 -0.0122264 0 0.0299008 0 0)
(30.2022 0.0175814 0 0.0273052 0 0)
(30.0098 0.0325844 0 0.0314443 0 0)
(29.9078 0.0154062 0 0.0264615 0 0)
(29.8557 0.0223236 0 0.0406374 0 0)
(29.9937 -0.0798536 0 0.0777901 0 0)
(30.7726 -0.173993 4.02223e-20 0.0597719 -3.27807e-22 1.02098e-37)
(31.7109 -0.186749 -3.97366e-20 0.0412612 3.29376e-22 9.93776e-38)
(32.7259 -0.170919 0 0.0302748 0 0)
(33.5587 -0.135707 0 0.0232381 0 0)
(34.2332 -0.0863229 0 0.0182832 0 0)
(34.5309 -0.0179787 0 0.0153313 0 0)
(34.4923 0.0418609 -7.82765e-20 0.0144842 3.66624e-22 3.46342e-37)
(33.967 0.0978494 0 0.0177225 0 0)
(33.3428 0.125832 7.48745e-20 0.0134612 -1.77986e-22 3.27301e-37)
(32.4972 0.140278 -7.18216e-20 0.0413009 4.59271e-23 3.18064e-37)
(32.4714 -0.0643764 0 0.0796489 0 0)
(32.8339 -0.0946662 0 0.0587929 0 0)
(33.3032 -0.0942929 0 0.0495947 0 0)
(33.7952 -0.0762071 6.45283e-20 0.0410414 -3.9497e-22 2.82985e-37)
(34.0886 -0.0269276 6.41767e-20 0.0291458 -3.9519e-22 2.74675e-37)
(34.0432 0.0413331 0 0.021768 0 0)
(33.6007 0.105578 6.26477e-20 0.0178253 -2.77508e-22 2.58583e-37)
(32.7823 0.163549 6.08708e-20 0.0156716 -1.92014e-22 2.50794e-37)
(31.6106 0.211899 -5.81925e-20 0.0144572 9.77865e-23 2.4317e-37)
(30.1392 0.252431 0 0.013726 0 0)
(28.3977 0.28633 0 0.0133082 0 0)
(26.4277 0.315633 -4.42822e-20 0.01321 -1.97475e-22 2.21251e-37)
(24.254 0.341012 0 0.0134975 0 0)
(21.8932 0.360999 0 0.0142151 0 0)
(19.3912 0.372706 0 0.0153428 0 0)
(16.8155 0.373141 0 0.0167427 0 0)
(14.2626 0.360237 1.06039e-20 0.0180793 1.52701e-22 1.87791e-37)
(11.8397 0.333604 5.76413e-21 0.0188617 3.83613e-23 1.8155e-37)
(9.65196 0.294719 0 0.0188273 0 0)
(7.78182 0.246987 4.0475e-22 0.0181326 -2.0636e-22 1.69501e-37)
(6.27425 0.19564 0 0.0167524 0 0)
(5.125 0.146982 0 0.0146288 0 0)
(4.29034 0.10311 4.67287e-22 0.0123489 -2.58891e-22 1.52455e-37)
(3.72192 0.0646159 0 0.0108589 0 0)
(3.37897 0.0339697 1.99731e-21 0.010512 -2.3947e-22 1.41743e-37)