/*--------------------------------*- C++ -*----------------------------------*\
  =========                 |
  \\      /  F ield         | OpenFOAM: The Open Source CFD Toolbox
   \\    /   O peration     | Website:  https://openfoam.org
    \\  /    A nd           | Version:  6
     \\/     M anipulation  |
\*---------------------------------------------------------------------------*/
FoamFile
{
    version     2.0;
    format      ascii;
    class       volScalarField;
    location    "0.4";
    object      k_0;
}
// * * * * * * * * * * * * * * * * * * * * * * * * * * * * * * * * * * * * * //

dimensions      [0 2 -2 0 0 0 0];

internalField   nonuniform List<scalar> 
12225
(
0.00099153
0.0029177
0.00281558
0.00141438
0.000435762
0.000139394
6.08889e-05
4.56622e-05
4.67928e-05
6.33797e-05
0.00012456
0.000190622
0.000230183
0.000246542
0.000248739
0.000243236
0.000212084
0.00013107
5.32395e-05
0.000151194
0.000158119
0.000130027
7.02564e-05
4.10652e-05
3.04345e-05
2.77943e-05
2.77862e-05
2.95725e-05
3.69157e-05
5.25657e-05
7.00679e-05
9.24869e-05
0.000117414
0.000136375
0.000142188
0.000138638
2.08809e-05
1.94544e-05
1.81931e-05
1.76186e-05
1.72692e-05
1.7461e-05
1.8092e-05
1.8516e-05
1.88161e-05
1.93211e-05
2.04351e-05
2.15617e-05
2.29909e-05
2.63673e-05
3.21113e-05
3.56035e-05
3.85946e-05
4.77365e-05
2.0225e-05
2.3772e-05
2.81266e-05
2.78311e-05
2.48883e-05
2.23371e-05
2.06242e-05
1.78031e-05
1.62885e-05
1.68933e-05
1.80188e-05
1.84224e-05
1.84479e-05
1.81834e-05
1.65689e-05
1.42613e-05
1.34734e-05
1.3717e-05
2.31754e-05
3.31923e-05
3.44395e-05
3.00444e-05
2.71433e-05
2.68701e-05
2.67896e-05
2.6349e-05
2.45732e-05
2.2542e-05
2.141e-05
2.08764e-05
2.05221e-05
2.00175e-05
1.94438e-05
1.90936e-05
1.91078e-05
1.92408e-05
2.25914e-05
2.47495e-05
2.42769e-05
2.30781e-05
2.38885e-05
2.69365e-05
2.73968e-05
2.62652e-05
2.39619e-05
2.32988e-05
2.31903e-05
2.2978e-05
2.27147e-05
2.25657e-05
2.26147e-05
2.31522e-05
2.55808e-05
3.4796e-05
2.69789e-05
2.4393e-05
2.26874e-05
2.81257e-05
2.97001e-05
2.79307e-05
2.49982e-05
2.30937e-05
2.21662e-05
2.20024e-05
2.24069e-05
2.317e-05
2.31102e-05
2.29746e-05
2.30071e-05
2.32597e-05
2.40949e-05
2.64002e-05
2.07832e-05
2.13048e-05
2.6133e-05
5.17106e-05
6.03243e-05
4.36505e-05
2.84654e-05
2.33694e-05
2.17005e-05
2.12071e-05
2.11237e-05
2.1161e-05
2.14294e-05
2.25595e-05
2.5268e-05
2.78827e-05
3.13636e-05
3.707e-05
2.03128e-05
2.40164e-05
4.20183e-05
4.79593e-05
3.82356e-05
2.6703e-05
2.27303e-05
2.1544e-05
2.12408e-05
2.11841e-05
2.11897e-05
2.12693e-05
2.1606e-05
2.28227e-05
2.74702e-05
3.23159e-05
3.39306e-05
3.47257e-05
2.0027e-05
2.20404e-05
3.53111e-05
4.41347e-05
4.05907e-05
3.16307e-05
2.80933e-05
2.77494e-05
2.86944e-05
3.02157e-05
3.12628e-05
3.18939e-05
3.18717e-05
3.22254e-05
3.43881e-05
3.57399e-05
3.56553e-05
3.47577e-05
2.0105e-05
2.09111e-05
2.70509e-05
3.52876e-05
3.59465e-05
3.23904e-05
2.70893e-05
2.58677e-05
2.64392e-05
3.13783e-05
4.35005e-05
5.00318e-05
5.06445e-05
4.6843e-05
3.72952e-05
3.17621e-05
2.8496e-05
2.61703e-05
2.0262e-05
2.05091e-05
2.22062e-05
2.49961e-05
2.53989e-05
2.50703e-05
2.51535e-05
2.73452e-05
4.00242e-05
5.72227e-05
6.29187e-05
6.25282e-05
5.61204e-05
4.13085e-05
3.18685e-05
2.71605e-05
2.5299e-05
2.45986e-05
2.24437e-05
2.16086e-05
2.37729e-05
2.54236e-05
2.41262e-05
2.30085e-05
2.29983e-05
2.38171e-05
2.64533e-05
2.82012e-05
2.85475e-05
2.8363e-05
2.69878e-05
2.42489e-05
2.2856e-05
2.2478e-05
2.25271e-05
2.33593e-05
2.11602e-05
2.08991e-05
2.16649e-05
2.36119e-05
2.33308e-05
2.25563e-05
2.25981e-05
2.26261e-05
2.20789e-05
2.16521e-05
2.16811e-05
2.23921e-05
2.41902e-05
2.49213e-05
2.48747e-05
2.40673e-05
2.32509e-05
2.29784e-05
2.08854e-05
2.16089e-05
2.25233e-05
2.25714e-05
2.22777e-05
2.19762e-05
2.19974e-05
2.19538e-05
2.15117e-05
2.12315e-05
2.12138e-05
2.14084e-05
2.18905e-05
2.20361e-05
2.20483e-05
2.20464e-05
2.20884e-05
2.22063e-05
2.01784e-05
2.0377e-05
2.12658e-05
2.35672e-05
2.32067e-05
2.32041e-05
2.40872e-05
2.53349e-05
2.51664e-05
2.40337e-05
2.32145e-05
2.28833e-05
2.27762e-05
2.27603e-05
2.27836e-05
2.29346e-05
2.35539e-05
2.53671e-05
2.12121e-05
2.13629e-05
2.11136e-05
2.14412e-05
2.14029e-05
2.13543e-05
2.13506e-05
2.12536e-05
2.09926e-05
2.09109e-05
2.09548e-05
2.11802e-05
2.15753e-05
2.18161e-05
2.1933e-05
2.20187e-05
2.21564e-05
2.24733e-05
2.00588e-05
2.0256e-05
2.02679e-05
2.02679e-05
2.04403e-05
2.04812e-05
2.03747e-05
2.04025e-05
2.07193e-05
2.21317e-05
2.37578e-05
2.43826e-05
2.44696e-05
2.43933e-05
2.38611e-05
2.29266e-05
2.24234e-05
2.2306e-05
2.0409e-05
2.03742e-05
2.05859e-05
2.1207e-05
2.15292e-05
2.14313e-05
2.12406e-05
2.123e-05
2.14037e-05
2.16728e-05
2.16916e-05
2.16152e-05
2.15831e-05
2.1611e-05
2.17499e-05
2.18569e-05
2.18943e-05
2.19002e-05
2.20301e-05
2.23608e-05
2.19897e-05
2.19459e-05
2.21215e-05
2.23223e-05
2.26281e-05
2.33125e-05
2.39718e-05
2.42712e-05
2.42123e-05
2.35425e-05
2.25472e-05
2.19265e-05
2.15671e-05
2.13468e-05
2.12389e-05
2.11654e-05
2.12486e-05
2.10761e-05
2.06374e-05
2.05445e-05
2.08017e-05
2.20677e-05
2.34666e-05
2.43027e-05
2.48806e-05
2.4991e-05
2.39148e-05
2.28565e-05
2.26475e-05
2.27578e-05
2.36492e-05
2.52585e-05
2.62092e-05
2.6488e-05
2.03284e-05
2.10348e-05
2.3757e-05
2.36838e-05
2.30622e-05
2.30454e-05
2.31757e-05
2.31367e-05
2.28518e-05
2.19063e-05
2.11758e-05
2.08461e-05
2.0755e-05
2.07623e-05
2.08918e-05
2.14374e-05
2.34513e-05
2.91429e-05
2.04985e-05
2.04243e-05
2.03634e-05
2.04338e-05
2.09135e-05
2.17666e-05
2.21798e-05
2.2257e-05
2.21849e-05
2.17226e-05
2.11767e-05
2.09434e-05
2.0893e-05
2.09096e-05
2.10504e-05
2.15945e-05
2.35334e-05
2.81016e-05
2.0032e-05
2.03912e-05
2.15407e-05
2.19574e-05
2.1876e-05
2.1515e-05
2.14375e-05
2.15318e-05
2.19077e-05
2.2168e-05
2.22753e-05
2.22934e-05
2.22514e-05
2.19698e-05
2.15187e-05
2.12891e-05
2.12286e-05
2.125e-05
2.04794e-05
2.06813e-05
2.06737e-05
2.06646e-05
2.06729e-05
2.07493e-05
2.11135e-05
2.23678e-05
2.35371e-05
2.40286e-05
2.41109e-05
2.40701e-05
2.37417e-05
2.27185e-05
2.18263e-05
2.12517e-05
2.08968e-05
2.07253e-05
2.20751e-05
2.19803e-05
2.07024e-05
2.04779e-05
2.06646e-05
2.10677e-05
2.17445e-05
2.34172e-05
2.5168e-05
2.55823e-05
2.51543e-05
2.4535e-05
2.4265e-05
2.4014e-05
2.327e-05
2.19375e-05
2.10562e-05
2.06495e-05
2.03003e-05
2.03334e-05
2.01926e-05
2.01861e-05
2.03135e-05
2.0307e-05
2.0018e-05
1.99918e-05
2.01036e-05
2.01358e-05
2.00065e-05
1.91717e-05
1.69876e-05
1.58014e-05
1.48667e-05
1.28221e-05
1.09722e-05
1.03003e-05
2.00073e-05
1.88641e-05
1.85806e-05
1.77721e-05
1.6402e-05
1.5358e-05
1.48745e-05
1.47648e-05
1.47679e-05
1.48202e-05
1.50151e-05
1.56279e-05
1.62234e-05
1.65554e-05
1.66761e-05
1.66777e-05
1.65265e-05
1.5699e-05
2.00731e-05
2.02791e-05
2.12737e-05
2.20322e-05
2.20759e-05
2.19416e-05
2.18628e-05
2.19e-05
2.21204e-05
2.28949e-05
2.56688e-05
2.96359e-05
3.20341e-05
3.31529e-05
3.36221e-05
3.38034e-05
3.40756e-05
3.42498e-05
5.47696e-05
3.16075e-05
3.24859e-05
4.07928e-05
4.2046e-05
3.97385e-05
3.55768e-05
3.46404e-05
3.52499e-05
3.99727e-05
5.60688e-05
6.96471e-05
7.61803e-05
7.81664e-05
7.81927e-05
7.66827e-05
7.4783e-05
7.45025e-05
0.0889285
0.100621
0.101257
0.103097
0.110396
0.12254
0.135698
0.148327
0.156948
0.156526
0.152885
0.148345
0.145175
0.141759
0.138971
0.136396
0.133936
0.131221
0.128636
0.126403
0.123421
0.122032
0.121763
0.121574
0.120807
0.118475
0.113244
0.106514
0.099661
0.09442
0.0910665
0.0897364
0.0903246
0.0955874
0.116226
0.158545
0.165802
0.151685
0.156481
0.206793
0.247419
0.255675
0.231945
0.163807
0.139931
0.133329
0.131853
0.130668
0.129006
0.126807
0.124826
0.12331
0.125175
0.126654
0.128007
0.127597
0.12681
0.125734
0.124732
0.124227
0.124063
0.124053
0.124156
0.124598
0.126401
0.13284
0.150402
0.1941
0.238461
0.261388
0.263618
0.257395
0.257559
0.301773
0.553347
0.689908
0.701989
0.71676
0.755207
0.787591
0.792011
0.745847
0.659996
0.624042
0.546622
0.399139
0.299404
0.254526
0.239106
0.249477
0.476796
0.581703
0.394554
0.227443
0.187997
0.166174
0.147448
0.139147
0.129962
0.124811
0.120476
0.116058
0.114146
0.11345
0.113461
0.113283
0.113255
0.113157
0.113116
0.113088
0.113088
0.113093
0.113109
0.113111
0.113065
0.113004
0.112924
0.112849
0.112743
0.112579
0.112399
0.112194
0.111914
0.111591
0.111206
0.110786
0.110334
0.10983
0.109276
0.108712
0.108151
0.107521
0.106897
0.106337
0.1058
0.105338
0.104956
0.104573
0.104119
0.103583
0.102542
0.103352
0.104041
0.10355
0.10157
0.0994752
0.0980646
0.0978232
0.0982899
0.0988598
0.0994321
0.100448
0.102343
0.104644
0.106077
0.106266
0.105619
0.104923
0.106063
0.107493
0.105436
0.0997752
0.100521
0.112282
0.118703
0.110568
0.0668421
0.0259588
0.0205924
0.0261839
0.0314172
0.0331827
0.0337106
0.0334309
0.0334415
0.0338361
0.0340507
0.0338642
0.033401
0.0299407
0.0893721
0.0430104
0.0719883
0.107262
0.136639
0.147494
0.15214
0.159331
0.160535
0.159269
0.15648
0.153039
0.149262
0.146339
0.14397
0.141891
0.139731
0.137672
0.135411
0.132761
0.130206
0.127304
0.124782
0.122388
0.120443
0.119245
0.117704
0.115737
0.114185
0.112034
0.107029
0.0991287
0.0920306
0.0899953
0.0929244
0.104899
0.13033
0.15388
0.164054
0.191656
0.210659
0.210851
0.198489
0.15743
0.142675
0.138063
0.132702
0.127636
0.123365
0.1187
0.116077
0.115874
0.116263
0.117121
0.118606
0.120623
0.124719
0.127327
0.128826
0.129414
0.129059
0.127904
0.125947
0.122908
0.120282
0.119892
0.120743
0.125643
0.127987
0.126851
0.127365
0.13456
0.156121
0.233036
0.305132
0.319396
0.350298
0.415999
0.433687
0.434003
0.437912
0.427037
0.368109
0.354293
0.341619
0.292521
0.267698
0.275424
0.316091
0.391688
0.40967
0.346139
0.176228
0.137185
0.126198
0.121034
0.118654
0.116819
0.114791
0.113445
0.111522
0.109776
0.10825
0.106502
0.105129
0.103579
0.102733
0.102296
0.102173
0.102379
0.103145
0.10359
0.104557
0.105533
0.106291
0.107197
0.108019
0.109008
0.109931
0.110773
0.111505
0.112223
0.112775
0.113189
0.113445
0.113569
0.113594
0.113487
0.113274
0.112939
0.112553
0.112078
0.111556
0.110983
0.110371
0.109831
0.109483
0.109273
0.108907
0.108184
0.106669
0.103913
0.100865
0.096568
0.0914982
0.0863153
0.0810963
0.0767731
0.073644
0.0700789
0.0657879
0.0633436
0.0613323
0.059699
0.0578946
0.0534671
0.0461042
0.0421397
0.0427776
0.0502741
0.0726146
0.09261
0.107068
0.112266
0.111113
0.103101
0.0895449
0.0808041
0.0777905
0.072488
0.0575907
0.0440517
0.0371356
0.0343717
0.0328288
0.0311998
0.0290093
0.0278572
0.0265371
0.0266742
0.0824817
0.0521676
0.11862
0.159549
0.157559
0.149852
0.137516
0.126556
0.125856
0.127328
0.130289
0.132635
0.134711
0.136507
0.137468
0.13777
0.137532
0.136729
0.134859
0.131851
0.128672
0.125031
0.121386
0.117976
0.115221
0.113501
0.112513
0.112045
0.111832
0.111403
0.110238
0.107437
0.099078
0.0926652
0.0861681
0.0852083
0.0874774
0.0988216
0.1228
0.142534
0.160884
0.171893
0.170931
0.164217
0.155022
0.140178
0.124371
0.114195
0.110015
0.111008
0.11326
0.117075
0.124827
0.133769
0.146449
0.161214
0.179546
0.191437
0.200735
0.203052
0.200773
0.194208
0.182677
0.173624
0.163195
0.149287
0.139715
0.136282
0.134248
0.13386
0.13459
0.139575
0.161876
0.183581
0.213315
0.273131
0.402072
0.440478
0.406219
0.267555
0.221331
0.221302
0.231073
0.249224
0.253964
0.248392
0.277011
0.344399
0.366436
0.354024
0.262386
0.152719
0.119586
0.111415
0.108084
0.10396
0.0981773
0.093886
0.0878058
0.0808421
0.0734037
0.065756
0.0594981
0.0556934
0.0526453
0.0501468
0.0489124
0.0482557
0.0479873
0.0479736
0.0488468
0.0495909
0.0508717
0.052957
0.0549959
0.057274
0.0598614
0.0629977
0.0665224
0.0703192
0.0741796
0.0782841
0.0825146
0.0866239
0.0904643
0.093814
0.0967101
0.0990384
0.101223
0.10318
0.104804
0.106072
0.107011
0.107582
0.107603
0.107028
0.105944
0.104795
0.103604
0.102484
0.101218
0.099603
0.0973492
0.0941091
0.0895045
0.0840825
0.0775931
0.0696967
0.0620073
0.055824
0.0502436
0.0447095
0.038355
0.0296223
0.0180228
0.00820988
0.00363307
0.00366377
0.0101805
0.0236179
0.0377297
0.0557391
0.0661661
0.0660923
0.053011
0.0388829
0.0427257
0.0578655
0.0678237
0.0697451
0.0689165
0.0627082
0.045431
0.0334386
0.0266484
0.0229486
0.0210641
0.0204423
0.0193841
0.0194841
0.0601899
0.133581
0.181559
0.164505
0.128119
0.10717
0.108151
0.111222
0.118431
0.126927
0.135764
0.143267
0.150741
0.156663
0.161623
0.165973
0.167952
0.167932
0.167106
0.164739
0.159401
0.151866
0.143187
0.13412
0.12678
0.121285
0.117374
0.114713
0.113019
0.112172
0.111339
0.109398
0.104454
0.0971171
0.0888412
0.0824727
0.0762059
0.0761882
0.0787642
0.0849624
0.09584
0.104991
0.106599
0.104075
0.0978091
0.0941313
0.0957093
0.100384
0.107623
0.118287
0.133801
0.156406
0.185999
0.216855
0.249085
0.271141
0.288329
0.299992
0.307744
0.310129
0.308221
0.295602
0.271174
0.251226
0.23843
0.220104
0.195175
0.171939
0.157582
0.152566
0.15262
0.156891
0.173646
0.218187
0.378071
0.442578
0.33105
0.213343
0.210653
0.225661
0.252661
0.253437
0.250741
0.250438
0.24733
0.249105
0.302926
0.346589
0.343364
0.254724
0.151234
0.117339
0.107517
0.103263
0.0964076
0.086687
0.0782612
0.068278
0.0577156
0.0487969
0.0415763
0.0376952
0.0358597
0.034694
0.0336599
0.0326347
0.032121
0.0316719
0.030915
0.0302113
0.0294035
0.028992
0.0287771
0.028578
0.0284582
0.0284203
0.028593
0.0288005
0.0291494
0.0298447
0.0308135
0.032125
0.0339561
0.0363168
0.0392687
0.0427435
0.0470326
0.051823
0.0568874
0.0621136
0.0673259
0.071858
0.0751528
0.0773731
0.0784388
0.0782315
0.0760896
0.0716774
0.0661594
0.0618551
0.0584799
0.0559876
0.0542674
0.0532806
0.0530559
0.053204
0.0532427
0.0523614
0.0496723
0.0474931
0.0465544
0.0466005
0.0477027
0.0539037
0.0604739
0.0609525
0.058096
0.0510305
0.0478742
0.0487409
0.0557266
0.0666796
0.0705021
0.0707406
0.0685779
0.0684781
0.0679099
0.0663135
0.0664019
0.0677323
0.0683058
0.0671641
0.0576942
0.0379701
0.0273429
0.0231975
0.0222916
0.0221946
0.0218564
0.0205163
0.0549581
0.191024
0.153717
0.0901999
0.0882579
0.0955113
0.111256
0.130602
0.141172
0.14806
0.15348
0.158576
0.163656
0.168408
0.172622
0.176161
0.178923
0.180761
0.181691
0.181773
0.181333
0.179691
0.17536
0.168898
0.160918
0.151833
0.143094
0.134211
0.125798
0.11984
0.116541
0.113357
0.106939
0.098873
0.0911721
0.0828948
0.0741771
0.0673669
0.0645945
0.0646704
0.0667299
0.0725757
0.0774503
0.0797658
0.0824362
0.0891794
0.103597
0.123492
0.145999
0.175034
0.209209
0.241717
0.265924
0.283674
0.296714
0.307512
0.316958
0.324276
0.329437
0.336567
0.344876
0.346482
0.335665
0.311647
0.279736
0.255116
0.238956
0.222003
0.209277
0.207277
0.216318
0.261553
0.355614
0.410494
0.338821
0.217543
0.20419
0.241713
0.271778
0.271753
0.269049
0.262013
0.257974
0.254348
0.248816
0.259218
0.31919
0.331986
0.280342
0.160913
0.119608
0.105868
0.0996147
0.0890628
0.0731312
0.0619291
0.0532324
0.0427606
0.0383855
0.0362408
0.0347658
0.0341453
0.0339534
0.0339254
0.0339815
0.0338549
0.0334426
0.0327383
0.0317612
0.0308429
0.0292318
0.0281432
0.0275946
0.0269981
0.0263987
0.0259825
0.0256249
0.0250957
0.024498
0.0240014
0.0235799
0.0231188
0.0227843
0.0225702
0.0224746
0.0225059
0.0227016
0.0231441
0.0240074
0.0255192
0.0280612
0.0319497
0.037241
0.0427808
0.0470818
0.049085
0.0484132
0.0428548
0.0374289
0.0330129
0.0288526
0.0250904
0.021845
0.019127
0.0171745
0.016308
0.0163803
0.0175786
0.0204235
0.0225961
0.0232801
0.0234644
0.024069
0.0272162
0.0391242
0.0476516
0.0486618
0.0475009
0.0400605
0.0357562
0.0371593
0.0495144
0.0678308
0.0738272
0.0742155
0.071851
0.0613311
0.0564614
0.0565849
0.0595846
0.064637
0.0659922
0.063192
0.0465053
0.0299123
0.0241651
0.0228039
0.0219374
0.0192156
0.0155376
0.130587
0.110896
0.0655636
0.0676141
0.0858299
0.124273
0.136822
0.141446
0.145708
0.149605
0.153487
0.15724
0.161335
0.165328
0.169006
0.172081
0.175162
0.178136
0.180396
0.181802
0.182007
0.181452
0.178783
0.174833
0.172432
0.168933
0.164347
0.159489
0.151861
0.142058
0.133354
0.122243
0.112559
0.102952
0.0919827
0.0819151
0.0704481
0.0623216
0.0597114
0.0599018
0.0632366
0.0703057
0.0771945
0.0828266
0.0952313
0.124891
0.149606
0.171099
0.197703
0.227206
0.250719
0.266702
0.279734
0.290133
0.297386
0.303041
0.30683
0.311652
0.320512
0.335512
0.351276
0.365596
0.374115
0.37739
0.37703
0.365354
0.353345
0.346156
0.344267
0.354816
0.367757
0.371569
0.344001
0.250677
0.21285
0.221476
0.264076
0.270139
0.266519
0.261887
0.255454
0.252908
0.254111
0.254189
0.254045
0.28234
0.311531
0.300479
0.197057
0.126955
0.1076
0.0994091
0.0893313
0.0716179
0.0560472
0.046524
0.0398905
0.0375989
0.0369728
0.0368439
0.0369815
0.0389156
0.0431071
0.0461032
0.047235
0.0476219
0.0472713
0.0448755
0.0431389
0.0414995
0.0381036
0.0349951
0.0328775
0.0312228
0.0300488
0.0295962
0.0289959
0.0278671
0.0266713
0.025292
0.0242728
0.023249
0.0224985
0.0218293
0.021223
0.0206207
0.0199776
0.019279
0.0185383
0.0178191
0.0172124
0.0169864
0.0173672
0.0187254
0.0211271
0.0241548
0.0266366
0.0274419
0.026828
0.0252865
0.0232098
0.0205069
0.0174514
0.014552
0.0120274
0.0100965
0.00910318
0.00903022
0.00948529
0.0116754
0.0146321
0.0157979
0.0166254
0.0187904
0.0276112
0.038815
0.0413108
0.0410438
0.0375612
0.0312699
0.0313133
0.0395827
0.0627359
0.0723051
0.0734457
0.068838
0.0547985
0.0517806
0.0543606
0.0608951
0.0650837
0.0663982
0.0651244
0.0523585
0.0334118
0.0265701
0.0233874
0.0194046
0.0132693
0.00924821
0.0521087
0.0744781
0.0483681
0.0696647
0.121766
0.135597
0.139402
0.141568
0.1435
0.146236
0.148677
0.150382
0.15186
0.153448
0.155338
0.157395
0.161036
0.165309
0.169327
0.171742
0.173225
0.173758
0.173458
0.172234
0.171762
0.170941
0.1694
0.167187
0.162188
0.154255
0.149072
0.141179
0.122015
0.103343
0.090272
0.0760359
0.0643501
0.059986
0.0594721
0.0611228
0.0679252
0.0771673
0.0900882
0.117616
0.144886
0.15553
0.171996
0.203148
0.232552
0.249411
0.260653
0.262657
0.255816
0.241264
0.225277
0.217464
0.215868
0.222387
0.242756
0.268072
0.293995
0.323598
0.353301
0.372841
0.380157
0.382154
0.381838
0.37931
0.374824
0.364643
0.343266
0.283738
0.222169
0.204395
0.228824
0.262086
0.266623
0.266556
0.264328
0.254917
0.249221
0.249028
0.251773
0.256046
0.266723
0.287903
0.293105
0.241939
0.14603
0.115326
0.105464
0.099126
0.0864553
0.0687255
0.0543329
0.0433089
0.0387446
0.0377944
0.0377652
0.0392162
0.04386
0.0518245
0.0556661
0.056727
0.0569516
0.0565802
0.0547035
0.0522366
0.0500447
0.0476827
0.0450832
0.0425572
0.0401045
0.0380261
0.0359239
0.0343939
0.0338991
0.033322
0.0326419
0.0314895
0.0297118
0.0276216
0.0256753
0.0243218
0.0232181
0.0222729
0.0213844
0.0204477
0.0193801
0.0181279
0.0169098
0.0157755
0.0148403
0.0142341
0.0139926
0.0144005
0.0161138
0.01914
0.0212333
0.0220139
0.0219289
0.0207635
0.0185103
0.0156831
0.0125278
0.00993121
0.00821171
0.00748541
0.00748974
0.00825709
0.0112193
0.0133003
0.0139866
0.0150127
0.0180945
0.027043
0.0312349
0.0313352
0.030316
0.0247968
0.0234407
0.0282542
0.0508605
0.0645642
0.0649387
0.052565
0.0398517
0.0424837
0.061011
0.069431
0.0695603
0.0690086
0.0671114
0.0559488
0.0378384
0.0288521
0.0222352
0.0159776
0.010171
0.00635908
0.0418576
0.0801439
0.0405266
0.0997947
0.131375
0.136844
0.137869
0.139898
0.143022
0.14608
0.148351
0.149499
0.150143
0.15099
0.152343
0.154264
0.158209
0.162866
0.167311
0.170043
0.170209
0.170713
0.171138
0.171408
0.172122
0.174243
0.175046
0.174148
0.171715
0.1693
0.161808
0.143413
0.119658
0.0995131
0.0812634
0.0681146
0.0626772
0.0614398
0.0635657
0.0703568
0.0879409
0.114273
0.13162
0.140212
0.149739
0.171188
0.210916
0.233296
0.235925
0.225915
0.188392
0.139022
0.12159
0.115319
0.113088
0.112861
0.117646
0.130682
0.149708
0.177004
0.214058
0.250318
0.286805
0.321216
0.34061
0.348492
0.350525
0.343311
0.315681
0.265999
0.208966
0.187366
0.183979
0.212644
0.254355
0.26398
0.267599
0.268736
0.265168
0.253856
0.249981
0.249836
0.253815
0.264351
0.277566
0.282148
0.261728
0.169615
0.126529
0.112771
0.106901
0.100542
0.0882938
0.0726303
0.0592475
0.0460854
0.0396599
0.0386519
0.0391795
0.0429306
0.0511796
0.0574542
0.0590158
0.0592901
0.0591039
0.0578934
0.055826
0.0535445
0.0513012
0.0489499
0.0465865
0.0442281
0.0418893
0.0398925
0.038168
0.0356531
0.0347931
0.0344442
0.034217
0.0340141
0.033637
0.0329022
0.0313909
0.0291621
0.027172
0.0257364
0.0246105
0.0236909
0.0228214
0.0218749
0.0205712
0.0188852
0.016792
0.0148607
0.0135834
0.0128826
0.0126957
0.0134506
0.0162885
0.0187776
0.0199394
0.020172
0.0197341
0.0181203
0.015339
0.0117308
0.00868113
0.00708217
0.00677016
0.00707661
0.00927635
0.0122742
0.0133485
0.0137575
0.0146245
0.0181367
0.0223351
0.0229593
0.0227933
0.0194603
0.0162148
0.0172574
0.027917
0.0384292
0.0373267
0.0273788
0.0252297
0.037
0.0720617
0.0829509
0.0819866
0.0776734
0.0715221
0.0567969
0.0419017
0.0313441
0.0224251
0.0147293
0.00867238
0.00487588
0.0527556
0.084862
0.0327861
0.11262
0.133068
0.134762
0.137599
0.141435
0.145235
0.148749
0.150974
0.15149
0.151602
0.152177
0.153961
0.157442
0.163857
0.173598
0.181502
0.192026
0.195031
0.192855
0.186353
0.182716
0.183147
0.188804
0.192596
0.1926
0.188363
0.175167
0.160305
0.137313
0.108201
0.0863243
0.0740923
0.068115
0.0680772
0.0758548
0.0881272
0.103753
0.11748
0.12938
0.136951
0.150851
0.178638
0.188815
0.191134
0.183941
0.150303
0.111831
0.0915742
0.0842964
0.0807217
0.0789861
0.0784525
0.0793193
0.0848862
0.0946792
0.106736
0.122455
0.141789
0.163012
0.183558
0.203215
0.216942
0.221763
0.221357
0.1971
0.160769
0.146918
0.142287
0.144214
0.169602
0.222422
0.250328
0.260108
0.268436
0.271974
0.269682
0.258826
0.255665
0.255669
0.263025
0.271366
0.274061
0.262979
0.200012
0.139713
0.12093
0.114308
0.110811
0.106548
0.0973955
0.087324
0.0767759
0.0589911
0.0441817
0.0412321
0.041178
0.0433701
0.0501372
0.0575273
0.0594996
0.0597476
0.0592349
0.0573726
0.0547227
0.0524043
0.0506585
0.0489032
0.0468957
0.0447609
0.0426241
0.0402373
0.0389856
0.0362434
0.0348134
0.0343749
0.0341744
0.0341324
0.0341007
0.0340447
0.033826
0.0331874
0.0317478
0.029538
0.0272731
0.0255311
0.0243691
0.0234985
0.022747
0.0219201
0.0209179
0.0192064
0.016549
0.0139796
0.0123741
0.0115472
0.0113617
0.0124238
0.0150967
0.0166913
0.0171105
0.017
0.0158439
0.0124805
0.00906197
0.00690052
0.00621379
0.00630264
0.00757886
0.0111263
0.0129763
0.0133621
0.0134197
0.013825
0.0154901
0.0160439
0.0160634
0.0149923
0.0116482
0.0111755
0.0131542
0.0167399
0.0164237
0.0149075
0.0172705
0.0387105
0.0823105
0.0962894
0.0958629
0.0909681
0.0775322
0.0607236
0.0464798
0.0342246
0.0235667
0.0147995
0.0082252
0.00426777
0.0580334
0.0872508
0.0296122
0.120736
0.130241
0.13447
0.140069
0.146729
0.152051
0.156588
0.159101
0.158984
0.15819
0.157978
0.16051
0.165534
0.174394
0.187982
0.202937
0.21269
0.216671
0.215835
0.21312
0.211584
0.21217
0.21291
0.209553
0.2013
0.188843
0.172126
0.148907
0.117859
0.0949657
0.0832876
0.077602
0.0828019
0.0966841
0.106996
0.111929
0.116646
0.123007
0.132192
0.143812
0.158902
0.165758
0.163363
0.138016
0.10916
0.0880703
0.0740125
0.0686326
0.0658389
0.0633925
0.06159
0.0608246
0.0605818
0.0612617
0.0643843
0.0693191
0.0763245
0.0855447
0.0962262
0.105834
0.112215
0.115047
0.115359
0.106553
0.0979281
0.0961132
0.0959727
0.0984996
0.110713
0.144448
0.20363
0.235508
0.248596
0.264025
0.274054
0.274565
0.267532
0.26281
0.263092
0.266463
0.267888
0.258387
0.217351
0.155267
0.129931
0.122196
0.119762
0.119225
0.116152
0.109082
0.099531
0.0871078
0.0654921
0.046415
0.0418053
0.0412572
0.0425167
0.047122
0.0548341
0.0578375
0.0579491
0.056026
0.0512191
0.0474851
0.0468892
0.0467961
0.0464007
0.0456896
0.0447656
0.0430028
0.0409478
0.0392756
0.0371382
0.0345585
0.0332637
0.0327232
0.032752
0.0330349
0.0335435
0.0339045
0.0339775
0.0338178
0.0334133
0.0324726
0.0305954
0.0281153
0.02578
0.0241903
0.0230692
0.022273
0.0215155
0.0205171
0.0184583
0.0150991
0.0122282
0.0104966
0.00953483
0.00927941
0.00991739
0.0107859
0.010945
0.0109818
0.0106841
0.00856746
0.00614518
0.00516992
0.00513415
0.00582629
0.00911055
0.0120974
0.0129656
0.012914
0.0125889
0.0125011
0.012329
0.0120318
0.0113219
0.00908628
0.00811547
0.00828809
0.00912952
0.00929276
0.00967414
0.0140913
0.0409306
0.0895127
0.107072
0.107433
0.102898
0.0873918
0.0684849
0.0525174
0.038298
0.0256296
0.0153438
0.00831001
0.00420016
0.0636244
0.0902193
0.0313965
0.124439
0.128917
0.135822
0.147364
0.156438
0.161558
0.164605
0.165896
0.16587
0.165086
0.16443
0.164904
0.169593
0.179868
0.195544
0.212364
0.221001
0.224152
0.2249
0.224759
0.224069
0.222014
0.217675
0.210223
0.199928
0.184885
0.160358
0.13271
0.109657
0.0969715
0.0928659
0.101905
0.111844
0.115396
0.115378
0.115452
0.117722
0.123798
0.133854
0.141168
0.143708
0.133333
0.117314
0.0992977
0.0768197
0.0654202
0.0604243
0.0578917
0.0555094
0.0527461
0.0503367
0.0490329
0.0485132
0.0484549
0.0498185
0.0524716
0.055974
0.0603025
0.0653816
0.0689145
0.0701517
0.0702823
0.0674434
0.0637749
0.0636362
0.0643046
0.0657336
0.0695298
0.0801413
0.104855
0.150187
0.204274
0.232251
0.247272
0.267776
0.275024
0.275005
0.268675
0.264298
0.263079
0.252561
0.220342
0.174346
0.140637
0.1294
0.126286
0.126124
0.125508
0.12247
0.116038
0.105933
0.0898591
0.0636246
0.043671
0.0393858
0.03907
0.0401148
0.0431306
0.0486148
0.0518274
0.051095
0.0458175
0.0436894
0.0446004
0.0457244
0.0461576
0.04591
0.0452982
0.0443742
0.0429624
0.0415117
0.0395188
0.0376017
0.0347014
0.0317119
0.0298771
0.0292871
0.0294371
0.0303025
0.0317212
0.0329161
0.0335876
0.0337653
0.033679
0.0334051
0.032793
0.031348
0.0287338
0.0258716
0.0237951
0.0224957
0.021709
0.0209401
0.0196278
0.0164361
0.0124211
0.00965938
0.00799752
0.0067534
0.00573988
0.0048266
0.00419933
0.00405393
0.00417579
0.00393871
0.00345577
0.00348087
0.00401147
0.00672102
0.0106651
0.0123644
0.0126008
0.0122741
0.0115985
0.0109373
0.0104487
0.00979091
0.00795173
0.00667363
0.0064904
0.00657686
0.00672873
0.00742075
0.0125984
0.0422279
0.096016
0.116402
0.117367
0.112732
0.0965093
0.0776022
0.0607909
0.0440773
0.0285841
0.0165144
0.00872569
0.00434867
0.0729101
0.0919335
0.0393077
0.125508
0.128903
0.141506
0.154711
0.160944
0.164352
0.166399
0.167185
0.16722
0.166882
0.167057
0.168549
0.173074
0.183222
0.199553
0.216624
0.224
0.226029
0.226274
0.225874
0.224162
0.221042
0.215474
0.206638
0.193403
0.173833
0.151389
0.129709
0.116796
0.114583
0.116901
0.1186
0.118703
0.117062
0.11446
0.114005
0.11596
0.123113
0.128882
0.129051
0.119047
0.108882
0.0977243
0.08585
0.0722613
0.0620989
0.0541817
0.0499424
0.0479251
0.046573
0.0451369
0.0431255
0.0420348
0.0414355
0.0409923
0.0409773
0.0427801
0.0457548
0.0500892
0.0530145
0.0539669
0.0540324
0.0508746
0.0485225
0.0482224
0.0486448
0.0496519
0.0523592
0.0594432
0.0753228
0.105257
0.151183
0.202989
0.229249
0.243331
0.264704
0.271368
0.27041
0.262314
0.252809
0.226355
0.188774
0.155546
0.137096
0.131154
0.129998
0.129564
0.128611
0.125524
0.119072
0.107342
0.0861615
0.0491238
0.0305624
0.0277494
0.0279696
0.0293887
0.0316031
0.0341306
0.0353983
0.0351
0.0368148
0.0422122
0.0457143
0.0479108
0.0480959
0.0467373
0.0455174
0.0443739
0.0426044
0.0410765
0.0384975
0.0365741
0.0343287
0.0310217
0.0275347
0.0250136
0.0240968
0.0244347
0.0259464
0.0284141
0.030749
0.032367
0.033195
0.0334918
0.0335076
0.0333499
0.0328941
0.0315615
0.028449
0.025043
0.0229067
0.0217912
0.0210649
0.0199958
0.0173374
0.0125359
0.00890864
0.00652564
0.00474895
0.00327704
0.00219892
0.00158524
0.00137507
0.00136507
0.00142218
0.00165472
0.00248534
0.00553441
0.00954628
0.0116026
0.0121677
0.0120367
0.0112206
0.0104927
0.00996725
0.00912743
0.00725971
0.0056106
0.00493558
0.00483976
0.00486696
0.00549273
0.0108242
0.041845
0.101989
0.125241
0.126858
0.122009
0.105043
0.0859184
0.0684218
0.0503012
0.0328317
0.018955
0.0100361
0.00495508
0.0803852
0.0948988
0.0610527
0.12359
0.129796
0.145274
0.156048
0.16125
0.164249
0.166105
0.166874
0.16709
0.167078
0.167554
0.169318
0.173627
0.181025
0.19263
0.208614
0.219505
0.222931
0.223678
0.223124
0.219851
0.214752
0.206693
0.195161
0.180873
0.165443
0.150008
0.13589
0.130469
0.126019
0.122281
0.119584
0.116958
0.111965
0.106938
0.106006
0.108081
0.115371
0.117329
0.115068
0.107831
0.0998887
0.0917895
0.0840897
0.0761769
0.0699256
0.063426
0.0569656
0.052636
0.0506494
0.0484533
0.0450397
0.0428793
0.0417177
0.0399137
0.0385211
0.0378392
0.0373602
0.0375877
0.041334
0.0462583
0.0485658
0.0491969
0.0462325
0.0440008
0.0435456
0.0435879
0.0445087
0.0477
0.0555755
0.0716342
0.100131
0.145121
0.200334
0.224533
0.235898
0.251731
0.258857
0.254851
0.234736
0.207656
0.174222
0.147888
0.13687
0.133019
0.131543
0.130685
0.129398
0.126436
0.120203
0.107059
0.0774487
0.035279
0.022212
0.0197489
0.0196047
0.0203536
0.0219918
0.0234596
0.0255335
0.0298048
0.0395337
0.0478837
0.0512515
0.0514112
0.0498231
0.0476889
0.0456508
0.0437868
0.0410588
0.0376826
0.033612
0.0304895
0.0294883
0.0283282
0.0256205
0.0217046
0.0193114
0.0184471
0.0186017
0.0200756
0.0236463
0.0276054
0.0303014
0.0319174
0.0328791
0.0333177
0.0333924
0.0332743
0.0327362
0.030612
0.0263746
0.0233553
0.0218298
0.0210096
0.01994
0.0172157
0.0119611
0.00780918
0.00500674
0.00314759
0.00190226
0.00113915
0.000776023
0.000688861
0.000706977
0.000885029
0.00174378
0.00506258
0.00909046
0.0111855
0.0118192
0.0117909
0.0110638
0.0103124
0.0097903
0.00862102
0.00673845
0.00489726
0.00371811
0.00327614
0.00325781
0.00387628
0.00909867
0.0397913
0.104816
0.131728
0.134579
0.129896
0.111969
0.0930642
0.0762766
0.0575788
0.0387822
0.0235341
0.0130318
0.00650502
0.0881741
0.0998926
0.0808464
0.12251
0.129655
0.144876
0.152132
0.155604
0.158599
0.161461
0.163099
0.163962
0.164847
0.166134
0.168099
0.171534
0.17747
0.185864
0.195765
0.205052
0.209414
0.211025
0.211051
0.206601
0.201274
0.194362
0.18478
0.174068
0.162016
0.150084
0.139535
0.132442
0.12591
0.120108
0.114002
0.104348
0.0888765
0.0825336
0.0813647
0.0827592
0.0868899
0.0867865
0.0856946
0.0851335
0.0830643
0.0794718
0.0758668
0.0716245
0.0665303
0.0617843
0.0581084
0.0557788
0.0526464
0.0494804
0.0469358
0.0450603
0.0435609
0.0419733
0.0402275
0.0391209
0.0365589
0.0352054
0.034886
0.0349536
0.0369621
0.0420728
0.0444805
0.0454444
0.0434316
0.0428266
0.0427792
0.0434686
0.0461505
0.0526203
0.065316
0.0886197
0.130166
0.189697
0.217311
0.225937
0.229193
0.230099
0.21276
0.188444