/*--------------------------------*- C++ -*----------------------------------*\
  =========                 |
  \\      /  F ield         | OpenFOAM: The Open Source CFD Toolbox
   \\    /   O peration     | Website:  https://openfoam.org
    \\  /    A nd           | Version:  6
     \\/     M anipulation  |
\*---------------------------------------------------------------------------*/
FoamFile
{
    version     2.0;
    format      ascii;
    class       volScalarField;
    location    "0.4";
    object      nut;
}
// * * * * * * * * * * * * * * * * * * * * * * * * * * * * * * * * * * * * * //

dimensions      [0 2 -1 0 0 0 0];

internalField   nonuniform List<scalar> 
12225
(
8.55849e-10
7.92995e-09
8.14093e-09
1.33351e-09
0
0
0
0
0
0
0
0
0
0
0
0
0
0
1.00936e-10
1.84998e-09
2.05315e-09
3.69302e-10
0
0
0
0
0
0
0
0
0
0
0
0
0
0
0
4.52404e-10
7.12393e-10
9.37423e-11
0
0
0
0
0
0
0
0
0
0
0
0
0
0
0
0
3.71224e-08
2.00584e-08
0
0
0
0
0
0
0
0
0
0
0
0
0
0
0
0
6.22023e-07
3.54155e-07
0
0
0
0
2.05673e-08
0
0
1.3219e-08
5.4185e-08
6.54644e-08
5.04342e-08
2.5195e-08
0
0
0
9.89158e-07
8.64057e-07
8.74746e-08
0
0
7.09464e-07
7.53177e-08
0
2.07696e-08
2.40196e-07
3.55092e-07
2.8549e-07
4.64289e-08
0
0
0
0
1.79715e-06
1.10876e-06
4.66239e-08
1.11796e-06
2.05402e-06
5.24658e-07
0
0
0
0
0
4.04581e-07
2.35054e-07
0
0
0
0
0
1.19069e-06
5.55568e-07
4.15391e-07
4.82142e-06
4.49005e-06
2.36728e-07
0
0
0
0
0
0
0
0
0
0
0
0
0
0
1.20103e-06
5.2034e-06
1.89243e-06
0
0
0
0
0
0
0
0
0
0
1.46403e-07
3.15574e-07
0
0
0
0
7.01769e-07
0
0
0
0
0
0
0
0
6.01356e-07
4.56122e-07
4.98644e-08
1.05948e-07
5.47016e-08
0
0
2.21657e-07
0
0
0
0
0
0
0
1.29495e-07
9.40027e-07
1.48599e-06
1.50144e-06
9.71371e-07
2.19603e-07
0
0
2.49557e-08
8.52286e-07
6.95e-07
0
0
0
0
0
0
3.5578e-07
6.57364e-07
8.38115e-07
9.22657e-07
8.95369e-07
6.64796e-07
2.76816e-07
0
0
0
1.50602e-06
1.49986e-06
9.16377e-07
6.23676e-07
5.88033e-08
0
0
5.73009e-07
6.3443e-07
6.59397e-07
6.55813e-07
6.24429e-07
5.87333e-07
5.18148e-07
2.3502e-07
0
0
0
1.16815e-06
1.14057e-06
2.06522e-06
1.60822e-06
7.7007e-07
0
0
0
0
6.06032e-07
8.26591e-07
6.25319e-07
5.82413e-07
7.73495e-07
6.77946e-07
1.82546e-09
0
0
0
1.33908e-06
1.45432e-06
2.6476e-06
7.52798e-07
0
0
3.17784e-07
0
0
0
0
5.15687e-07
6.10296e-07
0
0
0
0
0
0
1.36646e-06
2.23582e-06
3.70061e-07
0
0
1.76427e-07
3.24562e-06
0
0
0
0
0
0
0
1.65075e-07
7.10268e-07
0
0
0
1.42176e-06
7.33137e-07
0
0
0
0
0
7.77808e-08
8.09435e-07
0
0
0
0
0
9.72585e-08
5.56053e-07
1.4249e-07
0
0
1.68377e-07
4.29953e-07
9.57244e-09
0
0
3.783e-08
3.16762e-07
2.89452e-07
1.83632e-07
1.10172e-07
4.6693e-08
0
0
0
7.61063e-07
4.94242e-07
0
0
6.43412e-07
2.2857e-07
0
0
1.02155e-07
7.09129e-07
1.16204e-06
9.53826e-07
8.81648e-08
0
7.67892e-08
2.24315e-08
0
0
5.2253e-07
4.2579e-07
2.7733e-07
2.4979e-07
2.68583e-07
0
0
0
0
4.83946e-07
1.69436e-06
0
0
0
0
0
0
0
2.9505e-07
4.04365e-07
5.22027e-07
3.36786e-07
0
0
3.01462e-07
0
0
3.17523e-07
4.82995e-07
0
0
0
0
0
0
0
0
4.12604e-07
1.30341e-06
1.03566e-06
0
0
9.0831e-07
1.41173e-06
9.53927e-07
6.5145e-07
0
0
0
0
0
0
0
0
0
0
9.22678e-08
0
0
0
0
0
0
0
0
0
0
0
0
0
0
0
0
0
0
0
0
0
0
0
0
0
0
0
0
0
0
0
0
0
0
0
0
0
0
0
0
0
0
1.20602e-07
0
0
0
0
0
0
0
0
0
0
0
0
0
0
0
0
0
3.96345e-07
6.80469e-07
2.50842e-07
0
2.08176e-08
1.67443e-07
7.6426e-08
0
0
0
1.16906e-08
2.05658e-08
2.22633e-08
2.63346e-08
1.73979e-08
2.27594e-09
0
6.63793e-10
7.49993e-09
1.19095e-08
1.21798e-08
9.09522e-09
5.33672e-09
2.02729e-09
0
0
0
4.15971e-10
0
0
0
1.11922e-10
0
0
0
0
0
1.70836e-10
5.92895e-10
6.74848e-10
4.40673e-10
6.57588e-11
0
0
0
8.45662e-11
0
0
0
0
0
0
0
0
0
0
0
0
0
0
0
0
0
0
0
0
0
0
0
0
0
0
0
0
0
0
0
0
0
0
0
0
1.71912e-05
6.17327e-06
0
0
0
2.18369e-06
4.75942e-06
4.30307e-06
2.30939e-06
2.3958e-07
0
0
0
0
0
0
0
0
0
0
2.31103e-07
4.34162e-07
4.95108e-07
3.84624e-07
7.74112e-08
0
0
0
0
0
0
8.33211e-07
7.08028e-06
2.03696e-05
4.54308e-05
6.70652e-05
6.86166e-05
5.86667e-05
4.83415e-05
3.51447e-05
3.35671e-05
3.20321e-05
2.2194e-05
8.66987e-06
0
0
0
0
0
0
1.9423e-06
3.4649e-06
2.69485e-06
1.39655e-06
2.43028e-07
0
0
0
0
0
0
0
0
0
3.88697e-07
9.63158e-07
1.30002e-06
1.45471e-06
2.19449e-06
2.56359e-06
1.85196e-06
5.19901e-07
0
0
0
3.32579e-06
4.95597e-06
5.51164e-06
7.26555e-06
1.07665e-05
1.84606e-05
3.10252e-05
4.4635e-05
4.7804e-05
3.4609e-05
1.32114e-05
0
0
0
0
9.54712e-06
7.97216e-06
3.63347e-06
2.30155e-06
1.6314e-06
1.11105e-06
8.02257e-07
5.84476e-07
4.4888e-07
3.41853e-07
2.26945e-07
9.53085e-08
0
0
0
0
0
0
0
0
0
0
0
0
0
0
0
0
0
0
0
0
0
0
0
0
0
0
0
0
0
0
0
0
0
0
0
0
0
0
1.06491e-06
1.91192e-06
1.61865e-06
1.11967e-06
6.62017e-07
3.01507e-07
3.73817e-08
0
0
0
0
0
0
0
0
8.04093e-08
0
0
0
0
0
0
1.11383e-07
8.42493e-07
4.67423e-07
0
0
0
0
0
0
1.07375e-07
6.53137e-08
0
0
0
0
0
6.27935e-08
0
1.93837e-06
3.21573e-07
0
3.80341e-07
3.00965e-06
6.53413e-06
9.50975e-06
1.05481e-05
9.32862e-06
6.36009e-06
2.89267e-06
1.19839e-07
0
0
0
0
0
0
0
0
2.78664e-07
4.15018e-07
3.42241e-07
3.20355e-08
0
0
0
0
0
0
0
1.07334e-06
2.59218e-06
4.82191e-06
7.01835e-06
7.38309e-06
7.44446e-06
9.87064e-06
1.12296e-05
9.4659e-06
1.64462e-05
2.43698e-05
0
0
0
0
0
0
0
0
0
0
0
0
0
0
0
0
0
0
0
0
0
0
0
3.51892e-07
1.63729e-08
0
1.10711e-06
3.11232e-06
3.86159e-06
3.02232e-06
0
0
0
1.30714e-06
6.1218e-06
1.06013e-05
1.68141e-05
2.3963e-05
3.3794e-05
4.25222e-05
4.30873e-05
2.88863e-05
1.00531e-05
2.68581e-06
3.09968e-06
1.43973e-06
0
0
8.56956e-06
6.85949e-06
3.40359e-06
2.47783e-06
1.91223e-06
1.39097e-06
1.05813e-06
8.14223e-07
6.48513e-07
5.04802e-07
3.40285e-07
1.39828e-07
0
0
0
0
0
0
0
0
0
0
0
0
0
0
0
0
0
0
0
0
0
0
0
0
0
0
0
0
0
0
0
0
0
0
0
0
0
0
0
8.82064e-07
1.53056e-06
1.4238e-06
1.04001e-06
6.32132e-07
2.9806e-07
5.3112e-08
0
0
0
0
0
0
0
7.96098e-08
1.27604e-08
0
0
0
0
0
0
7.20624e-07
4.17675e-07
0
0
0
0
0
0
3.31824e-08
5.00563e-08
0
0
0
0
0
0
9.73721e-06
3.22716e-06
4.0944e-06
4.60121e-06
5.29655e-06
6.8127e-06
8.75139e-06
1.03768e-05
1.12214e-05
1.05125e-05
8.11688e-06
4.11105e-06
0
0
0
0
0
0
0
0
5.34882e-07
2.66861e-06
3.7718e-06
3.92074e-06
3.404e-06
2.63298e-06
1.9647e-06
1.53148e-06
1.2755e-06
1.12085e-06
1.00196e-06
8.25661e-07
6.53779e-07
7.88803e-07
1.4519e-06
2.43402e-06
2.6662e-06
2.62291e-06
2.15313e-06
0
0
8.20071e-07
7.51437e-06
0
0
0
0
0
0
0
0
0
0
0
0
0
0
0
0
0
0
0
0
0
0
0
6.66111e-06
8.63107e-06
6.7353e-06
7.49265e-06
8.96997e-06
6.37186e-06
0
0
0
0
0
0
0
3.68879e-05
5.44999e-05
4.97434e-05
3.28542e-05
1.57589e-05
5.40161e-06
3.00637e-06
3.27509e-06
4.89089e-06
5.52546e-06
1.20174e-07
0
6.07289e-06
9.69077e-06
6.64313e-06
6.39998e-06
5.35115e-06
4.11125e-06
3.32617e-06
2.72166e-06
2.17436e-06
1.6499e-06
1.05572e-06
4.1438e-07
0
0
0
0
0
0
0
0
0
0
0
0
0
0
0
0
0
0
0
0
0
0
0
0
0
0
0
0
0
0
0
0
0
0
0
0
0
0
0
0
0
0
4.35982e-07
7.34907e-07
7.55685e-07
6.02785e-07
3.70867e-07
9.42084e-08
0
0
0
0
5.40047e-09
4.70064e-08
8.29471e-09
0
0
0
0
0
0
4.85928e-08
2.51808e-07
0
0
0
0
0
0
2.45046e-07
3.54967e-07
4.31212e-08
0
0
0
0
0
5.82258e-06
6.06919e-06
6.81487e-06
6.66181e-06
6.23982e-06
6.29036e-06
6.77846e-06
5.71389e-06
4.58877e-07
0
0
0
0
0
0
0
0
0
0
0
0
0
0
2.0454e-08
9.95146e-06
1.90284e-05
2.2683e-05
1.91682e-05
1.2992e-05
7.80836e-06
4.34051e-06
2.23938e-06
1.07066e-06
5.48583e-07
3.96516e-07
4.98054e-07
8.26397e-07
1.85734e-06
3.344e-06
2.95062e-06
2.84001e-06
9.34919e-06
1.66065e-05
5.85084e-06
0
0
0
0
0
0
0
0
0
0
0
0
0
0
0
0
0
0
0
0
0
0
1.07902e-06
2.38444e-06
1.25586e-06
1.77115e-06
3.05449e-06
8.12151e-07
0
0
0
0
0
0
0
1.44041e-05
3.20141e-05
1.04732e-05
2.90604e-06
0
0
1.35562e-06
2.04572e-06
3.19503e-06
3.6131e-06
0
0
0
0
0
0
0
0
1.08798e-06
2.00233e-06
2.85507e-06
3.1627e-06
3.42516e-06
2.69061e-06
0
0
0
0
0
0
0
0
0
0
0
0
0
0
0
0
0
0
0
0
0
0
0
0
0
0
0
0
0
0
0
0
0
0
0
0
0
0
0
0
0
0
0
0
0
0
0
0
0
0
0
0
0
0
0
0
0
0
0
0
1.33804e-05
1.39079e-05
6.90229e-06
0
0
0
0
0
1.45624e-06
3.83854e-06
3.98654e-06
2.52098e-06
1.11744e-07
0
0
0
0
5.63079e-06
9.67539e-06
7.8297e-06
5.87464e-06
5.43004e-06
2.19691e-06
0
0
0
0
0
0
0
0
0
0
0
0
0
0
0
0
0
0
0
6.1236e-07
5.78958e-06
1.20118e-05
1.46283e-05
1.14944e-05
6.65065e-06
2.90652e-06
6.8734e-07
0
0
0
0
0
0
5.19333e-07
1.9254e-06
2.69021e-06
2.20414e-06
8.28255e-07
0
0
0
0
0
0
0
5.18046e-07
6.35804e-07
0
0
0
0
0
0
0
0
0
0
0
0
0
0
0
4.32603e-07
1.10006e-06
3.36027e-07
0
0
0
0
0
0
5.0299e-06
1.80998e-05
3.33863e-05
3.75231e-06
0
0
0
0
0
0
2.34018e-08
0
0
0
0
0
2.70231e-06
0
0
0
0
3.51752e-07
5.74461e-07
5.70907e-07
2.38995e-07
0
0
2.04852e-06
2.88569e-06
2.17233e-06
1.18176e-06
4.32713e-07
0
0
0
0
0
0
0
0
0
0
0
0
0
0
0
0
0
0
0
0
0
0
0
0
0
0
0
0
0
0
0
0
0
0
0
0
0
0
0
0
0
0
0
0
0
0
0
0
0
5.26519e-06
5.07452e-06
1.41692e-06
5.15924e-06
0
0
2.64212e-06
5.09741e-06
9.17563e-07
0
0
0
0
8.19165e-06
1.11983e-05
9.07968e-06
4.89193e-06
4.77844e-07
0
0
3.79224e-07
1.23684e-06
5.62137e-06
7.67214e-06
7.15944e-06
7.33994e-06
0
0
0
0
0
0
0
0
0
0
0
0
0
0
0
0
0
0
0
2.8661e-06
7.39162e-06
1.02197e-05
1.34111e-05
1.72877e-05
1.80739e-05
1.34734e-05
7.33785e-06
2.48803e-06
0
0
0
0
0
0
0
0
0
0
0
0
0
0
0
0
0
0
0
0
0
0
0
7.41806e-07
2.17972e-07
0
0
0
4.70152e-07
1.164e-06
0
0
0
0
0
0
0
0
0
0
0
0
0
0
4.54101e-06
6.74506e-06
8.1344e-07
0
0
0
0
0
0
0
0
0
0
0
0
0
6.40758e-06
1.65785e-05
1.13724e-06
7.54196e-07
6.96604e-07
6.43553e-07
7.08841e-07
8.9136e-07
9.33947e-07
5.51873e-07
1.94876e-08
3.25863e-07
1.35438e-06
1.93145e-06
1.76584e-06
1.25432e-06
8.92181e-07
6.39738e-07
3.28593e-07
0
0
0
0
0
0
0
0
0
0
0
0
0
0
0
0
0
0
0
0
0
0
0
0
0
0
0
0
0
0
0
0
0
0
0
0
0
0
0
0
0
0
0
0
2.09702e-06
7.91722e-06
1.26219e-05
2.40125e-06
9.37606e-06
6.68379e-06
1.18055e-05
3.087e-06
0
0
8.98412e-06
8.18108e-06
0
0
0
0
8.32221e-06
1.44881e-05
1.12549e-05
5.00136e-06
0
0
0
1.55682e-06
2.96379e-06
9.05922e-07
1.61683e-06
2.57813e-06
5.57872e-06
0
0
0
0
0
0
0
0
0
0
0
0
0
0
0
0
0
0
0
4.73742e-05
4.40787e-05
3.59598e-05
3.16119e-05
2.8001e-05
2.22868e-05
1.47473e-05
7.82212e-06
2.78679e-06
0
0
0
0
0
0
0
0
0
0
0
0
0
5.75759e-08
0
0
0
0
0
0
0
0
0
5.29152e-07
4.08036e-07
1.4061e-07
0
0
0
0
3.64275e-08
0
0
0
0
0
0
0
0
0
0
0
0
1.062e-06
1.86492e-06
0
0
0
0
0
0
0
0
0
0
0
0
0
0
9.08681e-07
8.21982e-07
3.56134e-06
1.12544e-06
1.32577e-06
1.07035e-06
9.44107e-07
7.95994e-07
7.60803e-07
4.43896e-07
0
0
0
6.02015e-07
9.43965e-07
6.43449e-07
2.04375e-07
5.66347e-08
1.7032e-07
3.47643e-07
5.40952e-07
5.10607e-07
1.13664e-07
0
0
0
0
0
0
0
0
0
0
0
0
0
0
0
0
0
0
0
0
0
0
0
0
0
0
0
0
0
0
0
0
0
0
0
0
0
0
0
0
5.55176e-07
3.44185e-06
8.13239e-06
2.43525e-05
8.88191e-06
5.14698e-06
5.19483e-06
2.54856e-05
2.46945e-05
2.70209e-05
1.23905e-05
4.60949e-06
5.72263e-06
4.50896e-06
2.60288e-06
7.5536e-06
1.50437e-06
0
1.27666e-05
1.15701e-05
3.74417e-06
0
0
3.3581e-07
3.5213e-06
3.8525e-06
9.92474e-08
1.81495e-07
3.7308e-07
1.25151e-06
0
0
0
0
0
0
0
0
0
0
0
0
0
0
0
0
0
0
0
9.69084e-05
5.77543e-05
3.79195e-05
2.78953e-05
2.1792e-05
1.706e-05
1.22161e-05
6.8389e-06
2.17261e-06
0
0
0
0
0
0
0
0
0
0
0
0
0
0
0
0
0
0
0
0
0
0
0
7.36286e-07
1.53164e-06
2.31129e-06
2.32914e-06
1.45358e-06
2.64781e-07
0
0
0
0
0
0
0
0
0
0
0
0
0
0
0
0
0
0
0
0
0
0
0
0
0
0
0
0
0
0
2.41978e-06
9.8549e-08
3.16536e-06
2.54994e-06
1.47533e-06
8.63124e-07
5.8807e-07
3.14695e-07
8.44757e-08
0
0
0
0
0
0
0
0
0
0
0
0
1.03541e-07
5.15844e-07
4.38683e-07
0
0
0
0
0
0
0
0
0
0
0
0
0
0
0
0
0
0
0
0
0
0
0
0
0
0
0
0
0
0
0
0
0
0
0
0
0
0
0
0
1.10084e-06
4.56321e-06
1.83416e-05
1.07072e-05
3.85772e-06
0
5.27797e-06
9.72251e-06
1.55896e-05
7.17594e-06
1.58482e-06
2.23774e-06
8.46474e-06
1.65002e-05
2.05363e-05
1.34375e-05
0
5.33963e-06
9.77182e-06
1.2866e-06
0
0
3.19515e-06
5.05695e-06
3.74559e-06
6.6953e-08
1.44653e-07
3.60368e-07
4.02901e-06
0
0
0
0
0
0
0
0
0
0
0
0
0
0
0
0
0
0
6.28234e-05
6.98986e-05
4.67216e-05
3.29366e-05
2.44874e-05
1.90159e-05
1.50674e-05
1.09751e-05
6.17549e-06
1.61486e-06
0
0
0
0
0
0
0
0
0
0
0
0
0
0
0
0
0
0
0
0
0
0
0
0
0
0
0
0
0
0
0
0
0
0
0
0
0
0
0
0
0
2.40189e-07
0
0
5.74717e-07
2.96417e-06
3.1027e-06
0
0
0
5.25498e-07
7.05579e-07
0
0
0
0
0
0
1.50418e-06
9.42425e-07
1.79746e-06
2.38812e-06
2.01372e-06
7.69357e-07
2.40062e-07
7.29135e-08
0
0
0
0
0
0
0
0
0
0
0
0
0
0
0
0
2.57591e-07
1.8937e-07
0
0
0
0
0
0
0
0
0
0
0
0
0
0
0
0
0
0
0
0
0
0
0
0
0
0
0
0
0
0
0
0
0
0
0
0
0
0
0
0
7.29723e-07
9.63038e-06
9.74444e-06
2.27341e-06
0
0
3.99153e-06
8.21294e-06
3.44401e-06
5.67136e-07
6.13689e-07
8.58953e-06
3.56205e-05
3.71893e-05
3.01792e-05
0
0
5.3735e-06
0
0
5.32864e-07
5.67942e-06
5.57404e-06
3.41262e-06
6.64847e-08
1.17332e-07
1.93303e-07
0
0
0
0
0
0
0
8.7916e-06
2.49977e-05
3.65516e-05
3.21525e-05
0
0
0
0
0
0
0
2.69963e-05
6.68892e-05
6.11597e-05
4.57199e-05
3.4021e-05
2.59956e-05
2.07035e-05
1.6944e-05
1.31095e-05
7.98099e-06
3.01359e-06
6.704e-07
0
0
0
0
0
0
0
0
0
0
0
0
0
0
0
0
0
0
0
0
2.86515e-07
5.16e-07
1.75282e-07
0
0
0
0
0
0
0
0
0
0
0
0
0
0
0
0
2.97887e-06
2.18339e-06
5.59804e-07
1.22119e-06
3.61486e-06
6.74883e-06
8.51219e-06
5.76634e-06
3.22993e-06
6.61257e-06
1.467e-05
1.94263e-05
1.68008e-05
3.44229e-06
7.96675e-07
0
0
0
0
0
0
0
0
0
0
9.79401e-08
0
0
0
0
0
0
0
0
0
0
0
0
0
0
0
0
0
0
0
0
0
0
0
0
0
0
0
0
0
0
0
0
0
0
0
0
0
0
0
0
0
0
0
0
0
0
0
0
0
0
0
0
0
0
0
1.83888e-07
0
0
0
4.67237e-06
1.08834e-05
2.96221e-06
0
0
3.24373e-06
4.83343e-06
1.65483e-06
0
0
6.32249e-06
5.74354e-05
5.43191e-05
4.70293e-05
0
0
9.7279e-07
1.44379e-06
7.43136e-07
4.36567e-06
6.5311e-06
5.63184e-06
3.09742e-06
4.15242e-08
6.0808e-08
8.00683e-08
0
0
0
0
0
0
0
7.8271e-06
4.555e-05
7.91246e-05
8.72022e-05
8.77854e-05
9.28137e-05
9.52968e-05
7.38902e-05
3.98268e-05
2.4745e-05
2.92489e-05
4.54708e-05
5.68987e-05
5.34214e-05
4.34293e-05
3.41576e-05
2.75193e-05
2.32948e-05
2.02208e-05
1.61096e-05
9.70111e-06
4.14805e-06
1.75239e-06
0
0
0
0
0
0
0
0
0
0
0
0
0
0
0
0
0
0
0
0
0
0
0
0
0
0
0
0
2.96969e-07
1.20411e-06
1.77889e-06
2.12671e-06
2.28073e-06
2.32764e-06
2.36595e-06
2.3575e-06
2.23839e-06
1.77996e-06
2.21335e-07
1.4252e-06
1.56388e-06
4.35217e-07
8.0918e-07
2.12578e-06
3.89789e-06
6.45034e-06
7.92451e-06
8.17638e-06
1.06327e-05
1.7341e-05
2.53471e-05
1.88452e-05
6.9778e-06
2.35227e-06
1.06559e-07
0
0
0
0
0
0
4.90653e-07
8.84256e-07
9.08584e-07
1.02124e-06
1.23946e-06
1.34837e-06
6.05992e-07
0
0
0
0
0
0
0
0
0
0
0
0
7.99931e-08
1.28541e-07
0
0
0
0
0
0
0
0
0
0
0
0
0
0
0
0
0
0
0
0
0
0
0
0
0
0
0
0
0
0
0
1.055e-07
6.31017e-07
8.4872e-07
0
0
0
0
0
1.55932e-06
0
0
4.49102e-06
1.48484e-05
5.01904e-06
6.68127e-07
0
1.41884e-06
2.17443e-06
8.41714e-07
0
0
2.23913e-06
5.82528e-05
5.61037e-05
5.33697e-05
0.000111632
1.21735e-05
4.28096e-06
3.42862e-06
3.45963e-06
5.88337e-06
6.70846e-06
5.45302e-06
2.73475e-06
0
0
0
0
3.97043e-06
4.08499e-06
4.00477e-06
2.7138e-06
2.0713e-06
6.32228e-06
3.13138e-05
0.000100202
0.000119568
9.08014e-05
7.21845e-05
6.64811e-05
6.80914e-05
6.79058e-05
5.90371e-05
4.6888e-05
4.02971e-05
4.0651e-05
4.44317e-05
4.57818e-05
4.24621e-05
3.69605e-05
3.20101e-05
2.85038e-05
2.5611e-05
2.04604e-05
1.05953e-05
3.24754e-06
0
0
0
0
0
0
0
0
0
0
0
0
0
0
0
0
0
0
0
0
0
0
0
0
0
0
0
0
0
3.11617e-07
8.99575e-07
1.23536e-06
1.41691e-06
1.44597e-06
1.37077e-06
1.19969e-06
9.30693e-07
5.66884e-07
8.99488e-08
0
0
0
0
0
0
2.74638e-07
2.17049e-06
5.27646e-06
7.5613e-06
9.45733e-06
1.20921e-05
1.28624e-05
9.34855e-06
4.64507e-06
1.44974e-06
0
0
0
1.21194e-06
0
0
0
1.01508e-06
1.33649e-06
1.03723e-06
8.40171e-07
1.24331e-06
2.85048e-06
4.29329e-06
4.36159e-06
6.83319e-06
1.32669e-05
1.99299e-05
1.86983e-05
1.13049e-05
6.21176e-06
2.6215e-06
5.98184e-07
0
1.30467e-08
2.21554e-07
3.78004e-07
4.27468e-07
3.22054e-07
0
0
0
0
0
0
0
0
0
8.58548e-08
0
0
0
0
0
4.0554e-08
0
0
0
0
0
0
0
0
0
0
0
0
0
0
4.7473e-07
1.28234e-06
1.61734e-06
8.13182e-07
0
0
0
0
3.026e-06
2.84153e-06
0
6.20718e-06
1.42971e-05
7.20436e-06
2.17752e-06
0
0
4.5495e-07
6.8345e-07
1.8946e-07
0
0
0
1.7433e-05
4.61931e-05
0.000120062
6.3518e-05
1.09639e-05
3.88522e-06
4.08568e-06
6.20077e-06
6.54016e-06
5.04607e-06
2.57392e-06
0
0
0
0
1.03929e-05
1.71656e-05
2.12856e-05
2.3421e-05
2.5905e-05
3.36377e-05
5.87703e-05
0.000102985
0.000111443
8.98248e-05
7.09644e-05
6.05809e-05
5.62201e-05
5.22211e-05
4.50862e-05
3.62432e-05
2.90977e-05
2.48942e-05
2.33141e-05
2.34065e-05
2.39729e-05
2.40556e-05
2.37117e-05
2.39543e-05
2.57111e-05
1.97089e-05
6.4931e-06
9.35175e-07
0
0
0
0
0
0
0
0
0
0
0
0
0
0
0
0
0
0
6.68519e-07
1.1949e-06
1.51241e-06
1.49612e-06
9.67908e-07
0
0
0
0
0
0
0
1.26479e-07
5.91389e-07
9.70058e-07
1.20528e-06
1.18067e-06
9.5046e-07
5.89008e-07
1.60891e-07
0
0
1.19294e-07
3.49582e-07
0
0
0
0
0
1.33423e-06
4.08929e-06
6.01106e-06
7.09751e-06
6.91642e-06
5.08615e-06
2.4545e-06
0
0
0
0
9.01635e-07
0
0
0
1.75216e-06
2.06654e-06
1.74849e-06
1.47496e-06
1.45937e-06
2.91565e-06
8.36105e-06
7.97873e-06
8.30845e-06
1.02028e-05
1.15282e-05
9.57233e-06
6.616e-06
3.9855e-06
1.80871e-06
4.13344e-07
0
0
2.17229e-07
3.62187e-07
3.66747e-07
3.76813e-07
3.15555e-07
0
0
0
0
0
0
0
0
5.52727e-08
3.70254e-07
1.58167e-07
0
0
0
0
2.97352e-07
1.21377e-07
0
0
0
0
0
0
0
0
0
0
0
0
6.42612e-08
7.08901e-07
1.1516e-06
9.36981e-07
0
0
2.17196e-06
4.60651e-07
2.42468e-06
4.22538e-06
2.04377e-06
2.36808e-06
8.23649e-06
7.51721e-06
3.50061e-06
0
0
0
6.53136e-07
5.41612e-07
2.25718e-07
0
0
0
3.34673e-05
8.90962e-05
6.65024e-05
1.46643e-05
3.03752e-06
3.23121e-06
5.37206e-06
5.59621e-06
4.51558e-06
2.83462e-06
0
0
0
0
6.65708e-07
6.52442e-06
1.35555e-05
2.09123e-05
2.79393e-05
3.66128e-05
5.29031e-05
7.58053e-05
8.87304e-05
8.83733e-05
8.19752e-05
7.19632e-05
6.06679e-05
4.86989e-05
3.67945e-05
2.65378e-05
1.8566e-05
1.28741e-05
9.03256e-06
6.52832e-06
5.02524e-06
4.28557e-06
4.68788e-06
8.02864e-06
1.38669e-05
1.1466e-05
5.58459e-06
2.08303e-06
2.26643e-07
0
0
0
0
0
0
0
0
0
0
0
0
0
0
1.07174e-06
2.15778e-06
2.86569e-06
3.34581e-06
3.70485e-06
3.91107e-06
4.02274e-06
4.10295e-06
4.1323e-06
3.93809e-06
3.22544e-06
1.91818e-06
4.42938e-07
0
0
0
0
3.43867e-07
8.44291e-07
1.08107e-06
1.09741e-06
9.28998e-07
6.57111e-07
4.39805e-07
4.32821e-07
6.02404e-07
7.60158e-07
6.40574e-07
1.94788e-09
0
0
0
0
1.24421e-06
3.11848e-06
4.04508e-06
3.90436e-06
2.67087e-06
5.4965e-07
0
0
0
0
0
0
0
3.26596e-06
5.37698e-06
4.32407e-06
3.3776e-06
2.64142e-06
1.90869e-06
9.88335e-07
0
0
1.74235e-07
1.37977e-06
2.46791e-06
2.64731e-06
2.20031e-06
1.51032e-06
7.54684e-07
1.76196e-07
0
0
1.86606e-07
3.72062e-07
3.24155e-07
2.23737e-07
2.47254e-07
1.47893e-07
0
0
0
0
0
0
0
0
4.19987e-08
3.82845e-07
1.34776e-08
0
0
0
0
2.56729e-07
8.11735e-08
0
0
0
0
0
0
0
0
0
0
0
0
0
2.09313e-07
5.79554e-07
0
0
8.34167e-06
1.25131e-05
0
1.2239e-06
1.82976e-06
3.26827e-07
4.39647e-06
4.98529e-06
4.50709e-06
0
0
0
6.18089e-07
8.85958e-07
8.96477e-07
0
0
0
2.18929e-05
6.18852e-05
5.26023e-05
1.46671e-05
9.75404e-07
7.90649e-07
2.78601e-06
3.20591e-06
3.94194e-06
3.10929e-06
0
0
0
0
0
0
3.8843e-06
1.20438e-05
2.08528e-05
2.98762e-05
4.08938e-05
5.21076e-05
6.05634e-05
6.84373e-05
7.9134e-05
8.76782e-05
7.76168e-05
5.17693e-05
3.035e-05
1.73162e-05
9.5157e-06
4.69139e-06
1.72615e-06
9.74683e-08
0
5.73986e-07
3.45401e-06
8.08784e-06
1.10571e-05
9.60172e-06
6.07051e-06
2.86029e-06
4.37964e-07
0
0
0
0
0
0
0
0
0
0
5.96823e-07
1.55968e-06
2.14186e-06
2.36997e-06
2.33333e-06
2.08646e-06
1.70586e-06
1.22845e-06
7.50382e-07
4.34342e-07
4.55282e-07
9.24255e-07
1.80978e-06
2.89987e-06
3.81758e-06
4.25637e-06
3.92237e-06
2.90808e-06
1.502e-06
1.77873e-07
0
0
0
0
7.25465e-07
1.15229e-06
9.90652e-07
6.80021e-07
5.79933e-07
6.97333e-07
8.45028e-07
8.21873e-07
5.5766e-07
4.77319e-08
0
0
0
1.96519e-07
1.8169e-06
2.77177e-06
2.58016e-06
1.18625e-06
0
0
0
0
0
0
0
2.77284e-06
6.76103e-06
6.49369e-06
4.29279e-06
2.87046e-06
1.82248e-06
8.92426e-07
0
0
0
0
2.51778e-07
1.30435e-06
1.81181e-06
1.94697e-06
1.81554e-06
1.44272e-06
9.76135e-07
5.3514e-07
2.25904e-07
1.47021e-07
2.3554e-07
2.45386e-07
7.62461e-08
0
0
0
0
0
0
0
0
0
0
0
0
1.00714e-07
0
0
0
0
0
0
0
0
0
0
0
0
0
0
0
1.15031e-08
6.18205e-07
3.51855e-07
0
0
4.40229e-07
3.84743e-07
0
7.4421e-06
1.12123e-05
2.46542e-06
0
3.35629e-07
2.08143e-06
4.07638e-06
2.24001e-06
2.6842e-06
0
0
0
5.95436e-07
1.14967e-06
1.38482e-06
0
0
0
1.36422e-05
4.11909e-05
3.58709e-05
1.06933e-05
0
0
0
5.19135e-07
3.44985e-06
3.16001e-06
0
0
0
0
0
0
0
2.75594e-06
1.02422e-05
1.85225e-05
2.71652e-05
3.49344e-05
4.16887e-05
4.98864e-05
6.50037e-05
9.46468e-05
7.9072e-05
1.82155e-05
2.94203e-06
0
0
0
0
0
0
4.55918e-07
2.75155e-06
5.19158e-06
6.87712e-06
7.15425e-06
5.93187e-06
3.69924e-06
1.09256e-06
0
0
0
0
0
0
0
8.16439e-07
2.15959e-06
3.92776e-06
5.95256e-06
7.50463e-06
7.23734e-06
4.28394e-06
0
0
0
0
0
0
0
0
0
0
4.16464e-07
2.03287e-06
2.75805e-06
2.84177e-06
2.70157e-06
2.15779e-06
1.20884e-06
0
0
0
0
0
2.47483e-07
4.63328e-07
3.97064e-07
3.4937e-07
4.5775e-07
5.64376e-07
5.02822e-07
2.88372e-07
2.44033e-09
0
0
2.17276e-07
1.3672e-06
2.2126e-06
2.00573e-06
5.10369e-07
0
0
0
0
0
0
1.01752e-06
4.23348e-06
5.75781e-06
4.48049e-06
2.79381e-06
1.61634e-06
6.46051e-07
0
0
0
0
6.65684e-07
2.02308e-06
2.82214e-06
3.14306e-06
3.1369e-06
2.82408e-06
2.20798e-06
1.50145e-06
8.51716e-07
3.68587e-07
8.71267e-08
0
0
0
0
0
0
0
0
0
0
0
0
0
0
0
0
7.75215e-08
0
0
0
0
0
0
0
0
0
0
0
1.14882e-07
3.31294e-07
5.45913e-07
8.23874e-07
9.51044e-07
7.1247e-07
4.53293e-07
3.62387e-07
5.74771e-07
9.46533e-07
0
0
3.84071e-06
2.63043e-06
0
0
2.78466e-06
3.7152e-06
0
0
0
0
0
5.23298e-07
1.31288e-06
1.65579e-06
5.15336e-07
0
0
8.29277e-06
2.67907e-05
2.11674e-05
4.02989e-06
0
0
0
0
2.90406e-06
3.09672e-06
0
0
0
0
0
0
0
0
1.61326e-06
7.46881e-06
1.39327e-05
1.98975e-05
2.51259e-05
2.99588e-05
3.19478e-05
0
0
0
0
0
0
0
0
0
0
6.38678e-07
1.41285e-06
2.12897e-06
2.61678e-06
2.66881e-06
2.05072e-06
7.94108e-07
0
0
0
0
0
0
0
0
6.48053e-07
2.10943e-06
4.24663e-06
7.01921e-06
8.9428e-06
4.84065e-06
0
0
0
0
0
0
0
0
0
0
0
0
3.97599e-07
1.57266e-06
1.89743e-06
1.73932e-06
1.45078e-06
1.1557e-06
7.98793e-07
0
0
0
0
0
0
0
0
0
0
7.56412e-09
4.34386e-08
0
0
3.194e-08
3.27591e-07
9.69306e-07
1.62322e-06
1.53765e-06
4.05565e-07
0
0
0
0
0
2.06101e-07
1.62873e-06
3.04885e-06
3.27948e-06
2.55022e-06
1.6276e-06
7.88586e-07
0
0
0
0
8.85947e-07
2.78799e-06
3.85823e-06
4.23551e-06
4.23791e-06
3.95242e-06
3.30362e-06
2.31712e-06
1.33561e-06
5.88485e-07
1.72913e-07
0
0
0
2.79856e-08
1.93627e-09
0
0
0
0
0
0
0
0
0
0
0
0
0
3.58082e-07
0
0
0
0
0
0
0
0
0
4.294e-07
1.06871e-06
1.36484e-06
1.4249e-06
1.39555e-06
1.25863e-06
9.49582e-07
6.8565e-07
6.00402e-07
6.95235e-07
1.03914e-06
5.52723e-07
0
4.12779e-08
1.27699e-06
6.43973e-07
0
5.37018e-07
7.785e-07
0
0
0
0
0
3.77326e-07
1.37865e-06
1.78402e-06
2.09236e-06
0
0
4.18017e-06
1.68493e-05
1.0579e-05
0
0
0
0
0
2.99498e-06
3.20269e-06
0
0
0
0
0
0
0
0
0
9.00404e-07
4.90215e-06
8.79158e-06
1.1959e-05
1.28465e-05
2.79559e-06
0
0
0
0
0
0
4.52908e-07
8.31783e-07
9.78516e-07
1.05588e-06
1.14495e-06
1.24659e-06
1.30802e-06
1.21136e-06
8.51885e-07
2.4287e-07
0
0
0
0
0
0
0
0
3.30538e-07
2.10664e-06
4.98948e-06
9.48813e-06
1.55072e-05
1.8369e-05
1.24099e-05
6.6946e-06
4.21536e-06
3.10092e-06
2.281e-06
1.33067e-06
1.06906e-07
0
0
0
0
0
0
3.09841e-07
1.29107e-06
1.41288e-06
1.20039e-06
9.60591e-07
7.98532e-07
6.48974e-07
4.49316e-07
8.2295e-08
0
0
0
0
0
0
0
0
0
0
0
0
0
2.04268e-07
5.38668e-07
9.07628e-07
1.04922e-06
5.37915e-07
0
0
0
0
0
1.16227e-07
5.7424e-07
1.39241e-06
1.77696e-06
1.60448e-06
1.09027e-06
3.07241e-07
0
0
0
1.19679e-06
3.67626e-06
5.20405e-06
5.79575e-06
5.96809e-06
5.91674e-06
5.45831e-06
4.35009e-06
2.75061e-06
1.32619e-06
4.65658e-07
9.38997e-08
1.10166e-08
5.35643e-08
1.03049e-07
1.18696e-07
1.3605e-07
1.59947e-07
1.46952e-07
5.65716e-08
0
0
0
0
0
0
0
0
0
0
0
1.00103e-07
0
0
0
0
0
2.08235e-08
1.77981e-07
3.59008e-07
1.09878e-06
1.94769e-06
2.34069e-06
2.19491e-06
1.90304e-06
1.57033e-06
1.16366e-06
8.40909e-07
7.0964e-07
7.38422e-07
9.26854e-07
1.03277e-06
0
0
2.42666e-08
6.16847e-07
1.7147e-07
0
0
1.9154e-07
4.09698e-08
0
0
0
3.52846e-07
1.41525e-06
1.83377e-06
2.79345e-06
0
0
1.46268e-07
9.3885e-06
3.47159e-06
0
0
0
0
0
4.78253e-06
3.56285e-06
0
0
0
0
0
0
0
0
0
0
7.45928e-07
3.35848e-06
5.25965e-06
4.66939e-06
0
0
0
0
9.38908e-07
1.78474e-06
1.92653e-06
1.75528e-06
1.48993e-06
1.25487e-06
1.09759e-06
1.01318e-06
9.65652e-07
8.86247e-07
6.87725e-07
3.5013e-07
0
0
0
0
0
0
0
3.56842e-08
9.60394e-07
2.3791e-06
4.23967e-06
6.23023e-06
8.47909e-06
1.21755e-05
1.83362e-05
1.88084e-05
1.14817e-05
6.89058e-06
4.95412e-06
4.118e-06
3.60421e-06
3.03308e-06
2.14719e-06
7.91378e-07
0
0
0
0
0
1.07215e-06
1.15101e-06
8.08033e-07
5.05213e-07
3.35768e-07
2.68219e-07
2.47291e-07
2.0751e-07
4.48577e-08
0
0
0
0
0
0
0
0
0
0
0
0
0
1.53217e-07
3.56217e-07
4.7369e-07
3.83629e-07
6.30052e-08
0
0
0
0
0
0
6.45978e-07
1.31776e-06
1.36862e-06
1.01032e-06
2.76396e-07
0
0
1.94309e-06
4.46771e-06
6.36533e-06
7.39899e-06
7.92836e-06
8.29328e-06
8.27241e-06
7.47679e-06
5.57973e-06
3.03245e-06
1.22144e-06
3.97941e-07
1.37596e-07
9.48162e-08
1.30593e-07
1.63822e-07
1.40834e-07
9.89172e-08
1.12749e-07
1.65638e-07
1.55395e-07
3.90478e-08
0
0
0
0
0
0
0
0
0
0
3.47955e-07
0
0
0
0
6.59939e-07
1.05799e-06
1.11627e-06
1.20736e-06
1.7282e-06
2.65239e-06
3.17104e-06
2.97231e-06
2.36225e-06
1.81709e-06
1.3156e-06
9.37965e-07
7.60574e-07
7.47875e-07
8.3428e-07
1.03085e-06
2.47113e-07
0
0
1.16096e-07
0
0
0
1.17547e-08
4.55034e-07
2.13015e-07
0
2.84374e-08
5.62089e-07
1.33428e-06
1.70269e-06
2.57856e-06
2.32887e-06
0
0
3.50005e-06
0
0
0
0
0
7.1652e-06
7.60895e-06
3.98585e-06
0
0
0
0
0
0
0
0
0
0
2.03185e-07
2.68731e-06
4.29911e-06
3.06779e-06
0
0
0
1.27194e-06
2.44706e-06
2.49874e-06
2.0519e-06
1.50856e-06
1.07585e-06
7.97611e-07
6.60273e-07
6.11649e-07
5.96108e-07
5.4887e-07
4.11876e-07
2.03843e-07
1.47104e-08
0
0
0
0
1.98863e-09
1.88729e-07
4.45733e-07
6.81218e-07
6.54723e-07
2.05558e-07
0
0
0
0
0
0
0
0
8.19889e-07
1.70619e-06
2.26427e-06
2.33127e-06
1.72758e-06
4.42901e-07
0
0
0
0
2.38243e-07
6.15911e-07
4.05861e-07
1.52733e-07
2.87777e-08
0
7.53672e-09
1.94544e-08
6.31412e-09
0
0
0
0
0
0
0
0
0
0
0
0
0
0
0
9.14052e-10
1.83291e-08
1.1866e-08
1.01436e-07
3.00655e-07
0
0
0
0
7.96063e-07
1.47641e-06
1.55285e-06
1.25737e-06
7.41121e-07
8.77877e-07
2.46664e-06
4.70677e-06
6.83131e-06
8.5532e-06
9.73604e-06
1.05435e-05
1.10432e-05
1.08533e-05
9.49291e-06
6.3523e-06
2.82985e-06
9.33735e-07
3.48363e-07
2.28669e-07
1.97906e-07
1.76113e-07
1.58277e-07
1.2289e-07
7.29469e-08
6.72863e-08
1.16602e-07
1.40991e-07
1.00484e-07
4.37528e-08
1.39299e-07
4.83982e-07
5.77359e-07
2.40821e-07
0
0
0
0
0
2.81668e-07
0
0
0
0
1.53642e-06
2.34452e-06
2.17385e-06
1.97933e-06
2.20528e-06
3.05508e-06
3.65747e-06
3.59655e-06
2.80507e-06
2.03811e-06
1.42784e-06
9.99302e-07
7.85034e-07
7.39327e-07
7.77098e-07
9.03911e-07
9.20041e-07
0
0
0
0
0
0
0
0
4.20426e-07
0
3.14707e-07
7.35668e-07
1.13494e-06
1.44251e-06
2.03003e-06
2.95929e-06
0
0
0
0
0
0
0
0
6.23478e-06
8.84561e-06
4.0911e-06
0
0
0
0
0
0
0
0
0
0
2.33052e-06
5.76699e-06
6.72374e-06
5.47656e-06
0
0
0
1.71432e-06
2.57973e-06
2.16465e-06
1.43465e-06
8.04507e-07
4.25082e-07
2.74204e-07
2.58572e-07
2.99499e-07
3.45481e-07
3.52458e-07
2.91017e-07
1.8695e-07
1.14147e-07
1.16783e-07
1.62065e-07
1.88709e-07
1.70695e-07
1.2348e-07
4.08741e-08
0
0
0
0
0
0
0
0
0
0
0
0
0
5.2997e-07
1.34901e-06
2.02272e-06
2.18863e-06
1.61011e-06
4.416e-07
0
0
0
5.23307e-08
4.16828e-07
2.56681e-07
2.2649e-08
0
0
0
0
0
0
0
0
0
0
0
0
0
0
0
0
0
0
0
0
0
0
0
0
3.63001e-07
0
0
0
2.81567e-08
1.25143e-06
1.77125e-06
1.78169e-06
1.51311e-06
1.45468e-06
2.5614e-06
4.67706e-06
6.98158e-06
9.27448e-06
1.11668e-05
1.2414e-05
1.32837e-05
1.37318e-05
1.33669e-05
1.12904e-05
6.48129e-06
2.24923e-06
6.92766e-07
4.0842e-07
3.63462e-07
3.07775e-07
2.32248e-07
1.6534e-07
1.06748e-07
5.64807e-08
5.508e-08
1.08948e-07
1.35789e-07
1.13677e-07
1.51727e-07
3.84823e-07
8.4265e-07
1.11227e-06
8.95605e-07
3.09294e-07
0
0
0
0
2.92077e-07
1.46738e-07
0
0
8.40844e-07
2.80208e-06
3.87644e-06
3.37015e-06
2.64996e-06
2.45769e-06
3.0718e-06
3.75007e-06
3.83591e-06
3.1714e-06
2.25081e-06
1.54666e-06
1.06286e-06
8.14238e-07
7.41017e-07
7.55627e-07
8.10464e-07
9.38359e-07
5.43697e-07
0
0
0
0
0
0
0
0
0
4.92156e-07
8.25108e-07
1.02067e-06
1.22215e-06
1.53332e-06
2.35455e-06
1.92606e-06
0
0
0
0
0
0
0
0
7.68021e-06
3.87583e-06
0
0
0
0
0
0
0
0
0
7.91372e-07
3.5026e-06
3.64598e-06
3.35437e-06
3.453e-06
2.98001e-06
0
6.84375e-08
1.98597e-06
2.52071e-06
1.701e-06
6.34284e-07
9.00277e-09
0
0
0
8.78151e-08
1.78673e-07
2.26736e-07
2.18839e-07
1.74089e-07
1.49994e-07
1.75561e-07
2.14824e-07
2.07773e-07
1.29522e-07
0
0
0
0
0
0
0
0
0
0
0
0
0
5.15114e-07
8.93464e-07
9.55862e-07
1.01012e-06
1.36606e-06
1.78788e-06
1.70058e-06
9.81016e-07
8.19325e-09
0
0
1.13647e-07
3.99734e-07
2.51346e-07
2.84986e-08
0
0
0
0
0
0
0
0
0
0
0
0
0
0
0
0
0
0
0
0
0
0
0
0
1.71725e-08
0
0
0
6.93247e-07
1.51032e-06
1.77782e-06
1.64567e-06
1.54167e-06
2.24768e-06
4.12572e-06
6.52688e-06
9.01888e-06
1.13757e-05
1.32337e-05
1.46322e-05
1.57513e-05
1.62597e-05
1.58852e-05
1.27072e-05
5.72407e-06
1.42522e-06
5.72252e-07
5.55235e-07
5.31886e-07
4.34541e-07
3.21021e-07
2.30729e-07
1.58314e-07
9.32792e-08
6.95375e-08
1.06068e-07
1.05413e-07
1.80128e-08
2.27245e-09
2.56964e-07
7.55984e-07
1.07874e-06
9.15229e-07
3.59159e-07
0
0
0
0
5.30803e-07
6.70783e-07
2.18801e-07
5.11741e-07
2.27447e-06
4.42139e-06
5.48716e-06
4.55638e-06
3.25471e-06
2.56141e-06
2.8015e-06
3.47884e-06
3.70207e-06
3.31518e-06
2.40404e-06
1.65752e-06
1.13229e-06
8.50334e-07
7.53089e-07
7.50704e-07
7.65202e-07
8.47261e-07
8.50899e-07
9.93791e-08
0
0
0
0
0
0
0
3.50536e-07
6.48278e-07
8.5756e-07
9.76137e-07
1.04781e-06
1.18612e-06
1.65135e-06
2.21366e-06
0
0
0
0
0
0
0
0
4.80503e-06
3.43436e-06
1.62445e-06
1.31512e-06
1.00763e-06
2.09234e-06
3.41922e-06
4.17463e-06
3.49518e-06
2.47745e-06
2.03961e-06
2.60735e-06
3.74629e-06
3.92996e-06
3.11523e-06
1.98162e-06
0
0
0
0
7.21164e-07
5.1129e-07
0
0
0
0
0
0
6.86275e-08
1.19925e-07
1.26914e-07
1.06179e-07
9.99253e-08
1.26378e-07
1.54022e-07
1.33788e-07
5.53584e-08
0
0
0
0
0
0
0
0
0
0
0
8.27949e-07
2.30445e-06
3.34949e-06
3.72888e-06
3.40012e-06
2.65253e-06
2.08091e-06
1.93827e-06
1.7488e-06
1.12801e-06
2.92184e-07
0
0
1.92039e-07
4.29125e-07
3.10251e-07
9.84062e-08
0
0
0
0
0
0
0
0
0
0
0
0
0
0
0
0
0
0
0
0
0
0
0
0
0
0
0
0
8.86461e-07
1.29559e-06
1.27454e-06
1.17778e-06
1.66111e-06
3.16043e-06
5.44261e-06
7.87952e-06
1.03354e-05