/*--------------------------------*- C++ -*----------------------------------*\
  =========                 |
  \\      /  F ield         | OpenFOAM: The Open Source CFD Toolbox
   \\    /   O peration     | Website:  https://openfoam.org
    \\  /    A nd           | Version:  6
     \\/     M anipulation  |
\*---------------------------------------------------------------------------*/
FoamFile
{
    version     2.0;
    format      ascii;
    class       volScalarField;
    location    "0.4";
    object      p;
}
// * * * * * * * * * * * * * * * * * * * * * * * * * * * * * * * * * * * * * //

dimensions      [0 2 -2 0 0 0 0];

internalField   nonuniform List<scalar> 
12225
(
364.251
352.941
345.007
338.695
333.488
329.026
325.07
321.464
318.118
314.994
312.073
309.333
306.737
304.22
301.735
299.262
296.691
293.94
363.334
352.791
344.897
338.599
333.421
328.98
325.032
321.436
318.105
314.994
312.078
309.334
306.731
304.21
301.72
299.236
296.66
293.824
363.231
352.448
344.766
338.525
333.362
328.93
324.994
321.408
318.085
314.982
312.075
309.336
306.73
304.205
301.71
299.208
296.601
293.718
361.395
351.977
344.495
338.358
333.248
328.844
324.928
321.361
318.059
314.977
312.087
309.354
306.739
304.201
301.696
299.175
296.554
293.713
359.192
351.476
344.122
338.087
333.053
328.706
324.833
321.297
318.016
314.948
312.067
309.341
306.733
304.207
301.712
299.201
296.607
293.865
360.862
350.781
343.554
337.766
332.854
328.558
324.714
321.205
317.95
314.906
312.048
309.343
306.75
304.233
301.749
299.26
296.721
294.114
359.108
349.781
342.915
337.361
332.563
328.331
324.547
321.094
317.881
314.867
312.032
309.344
306.766
304.265
301.811
299.369
296.919
294.466
356.255
348.595
342.158
336.803
332.17
328.058
324.352
320.952
317.78
314.801
311.997
309.339
306.789
304.319
301.906
299.531
297.184
294.876
355.699
347.129
341.219
336.197
331.753
327.746
324.113
320.773
317.651
314.714
311.948
309.329
306.819
304.395
302.04
299.743
297.501
295.33
350.542
345.247
340.075
335.428
331.203
327.349
323.828
320.576
317.523
314.639
311.913
309.326
306.852
304.473
302.179
299.965
297.832
295.794
348.577
343.173
338.838
334.583
330.589
326.91
323.509
320.331
317.332
314.499
311.829
309.3
306.888
304.577
302.36
300.235
298.208
296.29
342.128
341.093
337.599
333.725
329.938
326.409
323.131
320.05
317.133
314.374
311.766
309.291
306.933
304.683
302.535
300.489
298.55
296.73
340.472
339.26
336.284
332.821
329.3
325.954
322.798
319.797
316.941
314.237
311.682
309.259
306.957
304.768
302.691
300.725
298.876
297.154
341.989
337.518
334.847
331.747
328.473
325.297
322.273
319.387
316.64
314.037
311.571
309.228
307.002
304.893
302.901
301.023
299.263
297.628
335.487
335.034
333.224
330.506
327.513
324.569
321.718
318.95
316.291
313.769
311.387
309.131
306.992
304.97
303.065
301.279
299.615
298.078
328.206
332.597
331.595
329.233
326.483
323.673
320.95
318.345
315.85
313.469
311.2
309.039
306.992
305.067
303.262
301.573
299.997
298.537
338.768
333.745
330.896
328.026
325.346
322.726
320.139
317.631
315.229
312.957
310.816
308.789
306.867
305.052
303.347
301.746
300.249
298.856
337.128
332.952
329.664
326.746
324.024
321.477
319.046
316.733
314.531
312.425
310.412
308.492
306.671
304.956
303.348
301.84
300.426
299.104
331.176
330.144
327.646
324.989
322.442
320.12
317.856
315.63
313.531
311.582
309.743
307.984
306.304
304.709
303.197
301.762
300.4
299.113
338.584
331.086
326.7
323.577
320.862
318.494
316.392
314.441
312.578
310.791
309.074
307.417
305.824
304.308
302.873
301.512
300.215
298.98
335.843
328.613
324.359
321.46
319.18
317.171
315.323
313.531
311.771
310.085
308.485
306.948
305.464
304.035
302.66
301.332
300.051
298.819
323.414
323.401
321.521
319.565
317.661
315.883
314.233
312.65
311.093
309.564
308.062
306.583
305.137
303.739
302.396
301.106
299.868
298.677
324.955
320.863
319.084
317.539
316.134
314.791
313.426
312.008
310.554
309.103
307.675
306.272
304.895
303.546
302.23
300.951
299.711
298.517
317.134
316.969
316.622
315.886
314.944
313.875
312.697
311.435
310.112
308.749
307.376
306.015
304.679
303.374
302.102
300.862
299.651
298.468
314.124
314.099
314.595
314.527
313.986
313.186
312.199
311.064
309.823
308.52
307.193
305.864
304.546
303.246
301.974
300.734
299.53
298.362
308.954
311.301
312.956
313.472
313.275
312.681
311.825
310.771
309.579
308.312
307.016
305.722
304.441
303.175
301.93
300.71
299.516
298.349
303.949
308.915
311.657
312.704
312.776
312.342
311.591
310.602
309.454
308.216
306.938
305.653
304.378
303.119
301.882
300.668
299.477
298.312
298.478
307.415
310.816
312.206
312.464
312.113
311.405
310.458
309.351
308.14
306.872
305.589
304.315
303.063
301.836
300.635
299.456
298.295
298.045
306.694
310.349
311.94
312.311
312.025
311.35
310.416
309.309
308.095
306.83
305.556
304.295
303.055
301.84
300.647
299.471
298.305
300.796
306.589
310.152
311.823
312.231
311.969
311.315
310.396
309.294
308.077
306.807
305.531
304.272
303.039
301.833
300.649
299.478
298.312
266.724
266.705
266.676
266.677
266.807
267.098
267.438
267.621
267.452
266.826
265.749
264.314
262.657
260.913
259.203
257.616
256.22
255.056
254.152
253.515
253.123
252.948
252.955
253.097
253.319
253.555
253.741
253.825
253.787
253.641
253.424
253.163
252.863
252.511
252.093
251.624
251.15
250.684
250.197
249.666
249.075
248.432
247.738
246.982
246.252
245.643
245.187
244.801
244.374
243.836
243.145
242.273
241.208
239.94
238.473
236.824
235.016
233.067
231.022
228.966
226.986
225.159
223.571
222.279
221.243
220.41
219.763
219.217
218.676
218.192
217.736
217.079
216.09
214.627
212.602
210.43
208.59
206.965
205.337
204.134
203.9
204.787
206.839
209.826
212.94
215.322
216.588
216.664
215.576
215.586
218.27
215.939
204.659
191.761
181.009
171.403
163.755
157.446
152.037
147.532
143.644
140.515
138.326
137.164
137.104
138.175
140.32
143.419
147.293
151.722
156.513
161.479
166.437
171.25
175.818
180.058
183.907
187.319
190.268
192.741
194.747
196.306
197.453
198.231
198.687
198.87
198.825
198.597
198.221
197.728
197.142
196.479
195.748
194.951
194.088
193.155
192.15
191.079
189.951
188.773
187.556
186.312
185.057
183.8
182.534
181.241
179.896
178.475
176.963
175.36
173.678
171.93
170.118
168.25
166.347
164.452
162.613
160.835
159.082
157.348
155.546
153.52
151.428
149.721
148.368
147
145.535
143.64
141.026
138.432
136.544
135.103
133.651
131.968
130.027
127.931
125.837
123.85
121.999
120.21
266.562
266.521
266.457
266.416
266.461
266.592
266.686
266.566
266.095
265.225
263.999
262.514
260.889
259.234
257.641
256.181
254.903
253.839
253
252.388
251.995
251.803
251.787
251.909
252.126
252.387
252.642
252.851
252.992
253.062
253.059
252.961
252.75
252.439
252.054
251.625
251.208
250.816
250.354
249.738
249.007
248.239
247.442
246.668
246.003
245.468
245.027
244.621
244.161
243.573
242.821
241.888
240.766
239.451
237.946
236.263
234.427
232.449
230.379
228.299
226.291
224.458
222.894
221.615
220.608
219.893
219.402
218.979
218.648
218.451
218.12
217.419
216.414
215.033
213.074
210.774
208.538
206.349
204.105
202.383
201.996
203.091
205.315
208.288
211.59
214.482
216.329
216.97
215.938
213.506
211.692
206.739
195.655
185.681
176.822
168.658
162.155
156.262
151.238
146.746
142.861
139.704
137.441
136.301
136.249
137.355
139.567
142.747
146.72
151.241
156.114
161.156
166.18
171.044
175.651
179.924
183.8
187.233
190.196
192.679
194.687
196.245
197.386
198.156
198.602
198.775
198.722
198.485
198.104
197.608
197.022
196.361
195.634
194.844
193.989
193.064
192.069
191.006
189.88
188.702
187.481
186.234
184.976
183.716
182.449
181.157
179.813
178.394
176.883
175.279
173.598
171.857
170.061
168.209
166.316
164.425
162.588
160.813
159.051
157.268
155.424
153.417
151.404
149.789
148.421
146.916
145.367
143.448
140.88
138.432
136.627
135.168
133.687
131.991
130.035
127.923
125.816
123.823
121.964
120.149
266.543
266.512
266.435
266.288
266.056
265.694
265.135
264.331
263.271
261.983
260.528
258.978
257.406
255.877
254.446
253.154
252.032
251.101
250.375
249.859
249.55
249.427
249.466
249.638
249.917
250.272
250.671
251.085
251.486
251.839
252.104
252.244
252.251
252.133
251.911
251.615
251.269
250.869
250.372
249.768
249.11
248.39
247.586
246.825
246.199
245.672
245.186
244.681
244.1
243.389
242.516
241.474
240.266
238.889
237.328
235.592
233.684
231.609
229.448
227.257
225.085
223.082
221.473
220.308
219.43
218.79
218.51
218.577
218.781
218.923
218.818
218.286
217.302
215.896
213.964
211.455
208.523
205.471
202.654
200.45
199.475
200.219
202.531
205.818
209.449
212.804
215.168
215.704
213.493
208.396
201.735
194.293
185.7
178.25
171.529
165.227
159.751
154.67
149.993
145.647
141.747
138.456
136.084
134.871
134.821
135.959
138.245
141.548
145.657
150.328
155.35
160.527
165.671
170.635
175.319
179.652
183.576
187.044
190.033
192.532
194.548
196.103
197.237
197.994
198.425
198.582
198.515
198.267
197.878
197.379
196.794
196.14
195.425
194.651
193.814
192.907
191.928
190.874
189.751
188.571
187.348
186.099
184.839
183.579
182.312
181.021
179.68
178.262
176.75
175.145
173.463
171.727
169.945
168.116
166.247
164.373
162.534
160.738
158.961
157.175
155.322
153.339
151.418
149.859
148.416
146.765
145.107
143.294
141.002
138.636
136.712
135.184
133.707
132.008
130.028
127.887
125.764
123.767
121.899
120.043
266.619
266.639
266.463
265.944
265.06
263.923
262.655
261.322
259.947
258.54
257.11
255.679
254.273
252.926
251.669
250.525
249.514
248.652
247.953
247.427
247.084
246.922
246.927
247.075
247.346
247.722
248.189
248.728
249.314
249.918
250.498
251.003
251.385
251.606
251.655
251.549
251.315
250.968
250.52
249.989
249.402
248.774
248.125
247.498
246.923
246.366
245.782
245.127
244.368
243.484
242.465
241.313
240.027
238.584
236.983
235.232
233.275
231.14
228.902
226.584
224.268
222.136
220.393
219.071
218.096
217.571
217.667
218.188
218.706
219.076
219.313
219.189
218.503
217.298
215.432
212.6
208.795
204.472
200.431
197.428
196.03
196.589
198.924
202.413
206.279
209.762
211.911
211.523
207.527
200.23
192.269
185.011
178.226
172.2
166.88
161.893
157.236
152.805
148.474
144.243
140.264
136.781
134.219
132.856
132.74
133.894
136.274
139.737
144.049
148.943
154.19
159.577
164.904
170.018
174.817
179.236
183.225
186.743
189.769
192.292
194.32
195.878
197.005
197.748
198.162
198.301
198.217
197.957
197.56
197.059
196.48
195.837
195.139
194.387
193.574
192.693
191.736
190.698
189.583
188.403
187.177
185.925
184.664
183.404
182.14
180.854
179.518
178.104
176.593
174.986
173.303
171.57
169.801
167.992
166.148
164.296
162.471
160.675
158.885
157.087
155.226
153.244
151.343
149.787
148.293
146.568
144.877
143.173
141.014
138.618
136.612
135.095
133.66
131.97
129.968
127.805
125.681
123.692
121.815
119.923
266.843
266.65
265.977
264.751
263.255
261.746
260.298
258.899
257.533
256.188
254.863
253.561
252.298
251.094
249.968
248.933
248.004
247.194
246.517
245.979
245.586
245.343
245.249
245.291
245.455
245.734
246.124
246.626
247.238
247.954
248.742
249.545
250.284
250.875
251.256
251.402
251.334
251.101
250.758
250.35
249.902
249.424
248.919
248.381
247.801
247.162
246.432
245.591
244.641
243.585
242.432
241.189
239.829
238.356
236.814
235.086
233.119
231.007
228.753
226.41
224.11
221.995
220.188
218.747
217.69
217.147
217.251
217.855
218.642
219.428
220.09
220.384
220.083
218.981
216.785
213.345
208.72
203.157
197.378
192.596
189.988
190.125
192.64
196.575
200.827
204.299
205.829
204.244
198.832
191.26
184.392
178.384
172.68
167.631
163.143
158.889
154.871
150.847
146.668
142.39
138.156
134.336
131.462
129.89
129.717
130.937
133.494
137.225
141.846
147.061
152.624
158.301
163.876
169.191
174.142
178.67
182.742
186.324
189.4
191.961
194.013
195.581
196.704
197.434
197.829
197.948
197.847
197.573
197.17
196.67
196.098
195.47
194.794
194.07
193.289
192.441
191.514
190.499
189.395
188.216
186.982
185.72
184.453
183.19
181.928
180.646
179.319
177.915
176.411
174.808
173.128
171.4
169.641
167.85
166.031
164.206
162.4
160.61
158.818
157.013
155.133
153.136
151.24
149.663
148.129
146.387
144.663
142.929
140.793
138.41
136.386
134.891
133.508
131.844
129.841
127.684
125.582
123.613
121.731
119.806
266.63
265.924
264.505
262.86
261.298
259.85
258.479
257.153
255.852
254.563
253.284
252.028
250.818
249.675
248.608
247.623
246.73
245.945
245.283
244.754
244.366
244.115
243.991
243.984
244.083
244.287
244.598
245.028
245.597
246.325
247.204
248.178
249.15
250.004
250.639
251.014
251.147
251.083
250.872
250.567
250.213
249.839
249.425
248.914
248.267
247.514
246.671
245.676
244.534
243.351
242.172
240.926
239.564
238.16
236.658
234.914
232.999
230.954
228.775
226.553
224.394
222.394
220.638
219.203
218.175
217.664
217.73
218.281
219.122
220.071
220.935
221.446
221.312
220.285
218.09
214.299
208.544
200.99
192.794
185.876
181.94
181.623
184.348
188.757
193.376
196.754
197.669
195.207
189.51
183.039
177.647
172.773
167.958
163.749
159.919
156.193
152.587
148.758
144.537
139.984
135.287
130.984
127.759
126.031
125.875
127.237
130.045
134.116
139.125
144.735
150.692
156.744
162.644
168.22
173.361
178.016
182.173
185.819
188.945
191.548
193.632
195.218
196.343
197.061
197.435
197.53
197.407
197.117
196.705
196.206
195.646
195.04
194.396
193.709
192.971
192.165
191.277
190.292
189.205
188.025
186.777
185.496
184.212
182.942
181.678
180.399
179.081
177.694
176.207
174.615
172.944
171.226
169.48
167.707
165.909
164.104
162.315
160.54
158.761
156.963
155.087
153.111
151.232
149.616
148.036
146.29
144.524
142.693
140.498
138.099
136.064
134.585
133.255
131.638
129.668
127.55
125.491
123.546
121.654
119.69
264.737
263.791
262.332
260.89
259.557
258.292
257.058
255.84
254.631
253.425
252.221
251.032
249.883
248.79
247.755
246.78
245.877
245.062
244.349
243.762
243.326
243.045
242.899
242.866
242.94
243.118
243.397
243.787
244.321
245.032
245.925
246.955
248.03
249.028
249.836
250.375
250.635
250.667
250.546
250.332
250.056
249.719
249.32
248.849
248.185
247.237
246.125
244.997
243.915
242.856
241.692
240.344
238.915
237.486
235.986
234.386
232.687
230.861
228.922
226.948
225.039
223.276
221.73
220.475
219.594
219.162
219.202
219.661
220.413
221.291
222.093
222.583
222.498
221.542
219.296
215.076
208.217
198.892
188.711
180.146
175.192
174.448
177.107
181.545
185.978
188.866
189.174
186.378
181.319
176.158
171.783
167.592
163.565
160.095
156.825
153.581
150.27
146.499
142.114
137.154
131.897
127.069
123.496
121.636
121.53
123.078
126.17
130.593
135.993
142.019
148.411
154.913
161.231
167.154
172.553
177.371
181.613
185.3
188.452
191.08
193.189
194.793
195.922
196.627
196.976
197.04
196.886
196.572
196.146
195.646
195.099
194.522
193.919
193.284
192.601
191.852
191.015
190.07
189.008
187.832
186.57
185.264
183.958
182.675
181.407
180.128
178.814
177.442
175.978
174.409
172.754
171.05
169.318
167.564
165.788
164.004
162.23
160.465
158.696
156.904
155.051
153.141
151.317
149.672
148.027
146.246
144.418
142.465
140.171
137.72
135.664
134.204
132.937
131.392
129.486
127.432
125.424
123.496
121.579
119.573
262.098
261.425
260.421
259.325
258.203
257.089
255.987
254.892
253.801
252.705
251.597
250.486
249.392
248.331
247.305
246.324
245.407
244.561
243.793
243.128
242.603
242.243
242.039
241.965
242.01
242.172
242.436
242.807
243.319
244.015
244.903
245.939
247.024
248.03
248.843
249.406
249.727
249.837
249.761
249.537
249.256
248.975
248.573
247.875
246.965
246.028
245.065
243.975
242.706
241.303
239.874
238.516
237.267
236.05
234.774
233.417
231.998
230.521
228.987
227.439
225.944
224.576
223.407
222.502
221.916
221.678
221.782
222.178
222.773
223.426
223.952
224.143
223.807
222.716
220.42
216.089
208.845
198.797
187.693
178.214
172.483
171.133
173.155
176.827
180.373
182.392
182.072
179.229
174.931
170.642
166.735
162.883
159.493
156.641
153.847
151.008
147.921
144.167
139.581
134.212
128.441
123.127
119.209
117.222
117.226
119.045
122.455
127.178
132.876
139.225
145.974
152.883
159.632
165.953
171.68
176.728
181.096
184.827
187.983
190.609
192.725
194.337
195.463
196.147
196.461
196.483
196.289
195.94
195.488
194.977
194.439
193.89
193.333
192.758
192.144
191.465
190.694
189.806
188.785
187.63
186.367
185.044
183.714
182.415
181.142
179.86
178.544
177.177
175.734
174.189
172.557
170.873
169.16
167.426
165.673
163.909
162.148
160.393
158.635
156.852
155.019
153.156
151.363
149.685
148.002
146.22
144.345
142.267
139.848
137.326
135.246
133.81
132.607
131.144
129.324
127.345
125.38
123.449
121.497
119.445
260.161
259.735
259.034
258.195
257.28
256.332
255.355
254.351
253.334
252.307
251.268
250.22
249.171
248.13
247.101
246.097
245.14
244.241
243.419
242.705
242.132
241.712
241.444
241.324
241.352
241.505
241.763
242.131
242.643
243.327
244.176
245.134
246.103
246.985
247.705
248.222
248.532
248.65
248.582
248.299
247.805
247.253
246.76
246.139
245.178
243.874
242.441
241.192
240.115
238.955
237.623
236.246
234.963
233.805
232.733
231.706
230.7
229.714
228.758
227.842
226.991
226.243
225.641
225.224
225.021
225.035
225.241
225.581
225.966
226.273
226.363
226.113
225.433
224.193
222.034
218.154
211.574
202.187
191.467
181.867
175.521
173.157
173.832
175.952
178.008
178.716
177.382
174.171
170.151
166.225
162.397
158.745
155.836
153.456
151.08
148.569
145.629
141.869
137.146
131.524
125.433
119.798
115.662
113.658
113.848
115.961
119.636
124.528
130.358
136.874
143.826
150.973
158.014
164.651
170.685
175.996
180.55
184.37
187.538
190.145
192.25
193.865
194.987
195.643
195.908
195.874
195.628
195.236
194.751
194.221
193.681
193.152
192.637
192.122
191.58
190.98
190.286
189.47
188.508
187.398
186.16
184.84
183.496
182.18
180.896
179.609
178.286
176.917
175.483
173.96
172.353
170.691
168.999
167.287
165.558
163.815
162.068
160.321
158.57
156.801
154.988
153.145
151.352
149.662
147.984
146.205
144.276
142.094
139.565
136.972
134.866
133.449
132.303
130.924
129.194
127.282
125.343
123.394
121.4
119.301
258.991
258.68
258.186
257.559
256.814
255.986
255.091
254.153
253.203
252.255
251.305
250.348
249.378
248.396
247.4
246.396
245.397
244.42
243.503
242.704
242.068
241.604
241.307
241.175
241.197
241.345
241.599
241.963
242.454
243.08
243.816
244.603
245.364
246.027
246.544
246.89
247.065
247.083
246.924
246.501
245.75
244.804
243.891
243.03
242.079
240.898
239.414
237.815
236.366
235.116
233.973
232.885
231.863
230.945
230.163
229.525
229.018
228.622
228.325
228.125
228.019
228.005
228.08
228.239
228.466
228.74
229.028
229.283
229.439
229.421
229.157
228.601
227.727
226.484
224.655
221.65
216.582
209.095
200.124
191.511
185.046
181.494
180.289
180.155
179.822
178.232
175.047
170.888
166.678
162.728
158.771
155.239
152.667
150.656
148.652
146.371
143.456
139.631
134.864
129.277
123.276
117.709
113.595
111.625
111.901
114.114
117.827
122.689
128.5
135.081
142.169
149.461
156.655
163.46
169.682
175.198
179.939
183.879
187.079
189.661
191.738
193.349
194.47
195.104
195.316
195.216
194.907
194.463
193.942
193.391
192.849
192.338
191.86
191.4
190.927
190.403
189.79
189.052
188.165
187.119
185.93
184.637
183.297
181.968
180.669
179.372
178.042
176.667
175.235
173.727
172.141
170.503
168.834
167.145
165.439
163.716
161.983
160.243
158.5
156.746
154.959
153.139
151.355
149.655
147.959
146.155
144.187
141.946
139.351
136.708
134.576
133.167
132.056
130.744
129.091
127.23
125.3
123.326
121.29
119.148
258.73
258.476
258.052
257.492
256.806
256.025
255.169
254.279
253.387
252.508
251.643
250.776
249.897
249.002
248.086
247.147
246.187
245.216
244.268
243.408
242.698
242.169
241.83
241.674
241.679
241.812
242.051
242.388
242.816
243.317
243.855
244.377
244.827
245.163
245.371
245.447
245.375
245.117
244.641
243.915
242.921
241.732
240.455
239.129
237.784
236.456
235.097
233.667
232.218
230.852
229.668
228.707
227.961
227.413
227.065
226.922
226.982
227.232
227.649
228.204
228.863
229.586
230.331
231.052
231.702
232.239
232.626
232.839
232.856
232.659
232.235
231.579
230.699
229.588
228.168
226.125
222.849
217.894
211.599
204.985
199.189
194.756
191.395
188.301
184.569
179.774
174.297
169.031
164.453
160.238
156.078
152.587
150.2
148.448
146.707
144.512
141.496
137.536
132.753
127.377
121.795
116.678
112.856
110.954
111.112
113.087
116.544
121.222
126.982
133.638
140.871
148.311
155.621
162.507
168.791
174.394
179.246
183.286
186.525
189.098
191.161
192.771
193.895
194.509
194.674
194.509
194.131
193.627
193.061
192.486
191.944
191.458
191.025
190.624
190.218
189.765
189.226
188.564
187.753
186.781
185.656
184.409
183.093
181.763
180.45
179.14
177.802
176.423
174.992
173.493
171.925
170.308
168.663
166.997
165.314
163.611
161.891
160.163
158.432
156.693
154.928
153.134
151.362
149.642
147.911
146.087
144.107
141.84
139.222
136.56
134.41
132.986
131.884
130.61
129.009
127.18
125.247
123.246
121.173
118.992
259.398
259.153
258.745
258.198
257.51
256.711
255.835
254.939
254.056
253.202
252.379
251.568
250.759
249.948
249.129
248.296
247.446
246.577
245.709
244.889
244.175
243.61
243.219
243.002
242.941
243.005
243.166
243.397
243.668
243.943
244.183
244.352
244.423
244.379
244.212
243.912
243.449
242.778
241.873
240.733
239.391
237.927
236.396
234.787
233.117
231.462
229.905
228.491
227.21
226.055
225.068
224.314
223.839
223.656
223.76
224.145
224.8
225.708
226.831
228.117
229.501
230.912
232.276
233.516
234.563
235.363
235.888
236.137
236.132
235.899
235.462
234.841
234.055
233.126
232.063
230.777
228.96
226.243
222.567
218.194
213.452
208.494
203.078
196.853
189.617
181.806
174.452
168.346
163.378
158.829
154.488
150.967
148.594
146.925
145.269
143.018
139.812
135.641
130.756
125.517
120.346
115.76
112.317
110.446
110.315
111.877
115.02
119.62
125.517
132.404
139.826
147.397
154.781
161.703
167.98
173.556
178.409
182.48
185.744
188.317
190.393
192.05
193.218
193.837
193.968
193.747
193.308
192.744
192.127
191.521
190.977
190.519
190.142
189.813
189.482
189.1
188.627
188.031
187.289
186.388
185.331
184.139
182.859
181.543
180.227
178.906
177.561
176.182
174.757
173.267
171.712
170.113
168.488
166.844
165.183
163.502
161.799
160.083
158.363
156.634
154.884
153.113
151.356
149.625
147.866
146.026
144.047
141.781
139.175
136.533
134.377
132.915
131.789
130.521
128.943
127.126
125.184
123.159
121.055
118.842
260.997
260.761
260.358
259.798
259.081
258.243
257.332
256.409
255.502
254.631
253.803
253.009
252.236
251.477
250.729
249.99
249.258
248.529
247.81
247.126
246.51
245.992
245.591
245.312
245.142
245.059
245.033
245.028
245.009
244.943
244.803
244.571
244.226
243.745
243.108
242.312
241.35
240.2
238.833
237.242
235.465
233.59
231.696
229.819
227.973
226.179
224.491
222.991
221.736
220.746
220.03
219.607
219.506
219.747
220.342
221.286
222.563
224.134
225.943
227.915
229.966
232.002
233.927
235.649
237.082
238.165
238.874
239.228
239.282
239.095
238.718
238.181
237.509
236.735
235.902
235.028
234.023
232.666
230.699
227.874
223.923
218.607
211.666
203.083
193.383
183.66
175.206
168.541
163.166
158.296
153.816
150.223
147.768
146.061
144.36
141.946
138.447
133.943
128.805
123.493
118.458
114.117
110.835
108.893
108.517
109.859
112.994
117.85
124.141
131.394
139.048
146.708
154.091
160.965
167.156
172.623
177.401
181.46
184.729
187.278
189.331
191.031
192.305
193.009
193.157
192.909
192.426
191.817
191.157
190.52
189.967
189.533
189.215
188.971
188.734
188.436
188.029
187.488
186.8
185.959
184.965
183.832
182.595
181.305
179.997
178.675
177.327
175.949
174.531
173.054
171.513
169.928
168.318
166.692
165.051
163.391
161.706
160.003
158.292
156.573
154.836
153.082
151.333
149.594
147.82
145.977
144.01
141.772
139.208
136.614
134.467
132.954
131.771
130.476
128.892
127.072
125.12
123.076
120.946
118.702
263.427
263.177
262.763
262.183
261.437
260.562
259.608
258.632
257.666
256.743
255.879
255.07
254.307
253.584
252.898
252.247
251.626
251.033
250.471
249.951
249.482
249.066
248.704
248.389
248.108
247.839
247.558
247.239
246.861
246.405
245.852
245.175
244.342
243.325
242.112
240.714
239.149
237.42
235.52
233.442
231.208
228.881
226.543
224.275
222.145
220.194
218.449
216.947
215.735
214.857
214.346
214.228
214.525
215.256
216.427
218.026
220.017
222.337
224.894
227.582
230.292
232.917
235.354
237.507
239.288
240.639
241.554
242.07
242.248
242.158
241.86
241.401
240.814
240.132
239.401
238.656
237.875
236.936
235.578
233.363
229.7
224.088
216.337
206.653
195.899
185.426
176.464
169.354
163.542
158.382
153.804
150.173
147.66
145.881
144.036
141.34
137.438
132.479
126.916
121.269
116.016
111.554
108.206
106.251
105.954
107.533
111.065
116.407
123.156
130.74
138.579
146.262
153.558
160.31
166.368
171.666
176.28
180.268
183.552
186.108
188.116
189.784
191.113
191.943
192.197
191.98
191.474
190.829
190.146
189.501
188.948
188.527
188.251
188.089
187.962
187.771
187.447
186.963
186.319
185.523
184.583
183.506
182.317
181.059
179.769
178.455
177.111
175.734
174.321
172.856
171.33
169.759
168.162
166.549
164.923
163.28
161.614
159.926
158.225
156.514
154.786
153.041
151.297
149.553
147.777
145.94
143.99
141.795
139.305
136.782
134.653
133.085
131.82
130.469
128.857
127.025
125.062
123.003
120.849
118.578
266.488
266.229
265.793
265.174
264.375
263.443
262.425
261.372
260.326
259.337
258.428
257.6
256.85
256.169
255.558
255.011
254.521
254.076
253.671
253.304
252.967
252.646
252.324
251.979
251.593
251.144
250.615
249.991
249.26
248.405
247.399
246.21
244.808
243.178
241.326
239.273
237.05
234.677
232.158
229.494
226.705
223.844
220.98
218.2
215.6
213.265
211.258
209.624
208.396
207.603
207.274
207.441
208.14
209.398
211.228
213.616
216.507
219.791
223.314
226.902
230.395
233.659
236.591
239.115
241.18
242.768
243.889
244.579
244.889
244.889
244.661
244.263
243.724
243.068
242.323
241.515
240.623
239.542
238.037
235.708
231.98
226.267
218.35
208.562
197.787
187.286
178.126
170.625
164.399
159.001
154.38
150.773
148.252
146.377
144.291
141.185
136.727
131.129
124.939
118.762
113.128
108.459
105.097
103.334
103.402
105.467
109.538
115.38
122.537
130.396
138.368
146.035
153.194
159.762
165.658
170.809
175.258
179.104
182.343
184.914
186.899
188.504
189.818
190.733
191.108
190.973
190.471
189.786
189.083
188.46
187.944
187.548
187.296
187.188
187.158
187.087
186.867
186.455
185.859
185.101
184.202
183.176
182.036
180.815
179.547
178.247
176.912
175.539
174.129
172.673
171.163
169.607
168.023
166.42
164.804
163.175
161.525
159.85
158.159
156.454
154.733
152.997
151.257
149.511
147.735
145.904
143.977
141.839
139.442
137.009
134.906
133.283
131.924
130.495
128.842
126.993
125.019
122.944
120.769
118.474
269.998
269.726
269.266
268.604
267.754
266.763
265.676
264.542
263.418
262.366
261.42
260.583
259.863
259.257
258.76
258.367
258.059
257.814
257.612
257.432
257.249
257.034
256.755
256.386
255.901
255.282
254.512
253.581
252.472
251.167
249.637
247.86
245.822
243.527
240.99
238.235
235.284
232.144
228.815
225.312
221.679
217.993
214.345
210.844
207.605
204.737
202.334
200.464
199.172
198.479
198.399
198.944
200.134
201.996
204.549
207.795
211.678
216.062
220.73
225.422
229.894
233.957
237.497
240.465
242.849
244.654
245.907
246.683
247.077
247.171
247.019
246.649
246.093
245.383
244.538
243.555
242.393
240.948
239.012
236.264
232.275
226.6
219.007
209.738
199.524
189.39
180.241
172.464
165.919
160.353
155.726
152.156
149.578
147.466
144.939
141.214
136.013
129.649
122.783
116.102
110.173
105.423
102.181
100.705
101.178
103.714
108.283
114.608
122.158
130.271
138.349
145.987
153.005
159.374
165.075
170.068
174.374
178.09
181.257
183.818
185.773
187.299
188.564
189.522
189.992
189.921
189.426
188.696
187.961
187.374
186.938
186.606
186.387
186.31
186.348
186.383
186.275
185.947
185.405
184.687
183.826
182.843
181.75
180.566
179.324
178.043
176.721
175.357
173.95
172.501
171.005
169.466
167.895
166.304
164.698
163.078
161.439
159.776
158.093
156.394
154.68
152.951
151.213
149.467
147.692
145.869
143.967
141.894
139.6
137.263
135.193
133.519
132.063
130.55
128.849
126.978
124.991
122.902
120.708
118.394
273.455
273.171
272.689
271.996
271.106
270.068
268.921
267.722
266.54
265.453
264.499
263.69
263.037
262.549
262.226
262.056
262.014
262.064
262.166
262.27
262.325
262.282
262.1
261.744
261.186
260.407
259.391
258.122
256.584
254.76
252.638
250.212
247.484
244.461
241.149
237.557
233.695
229.568
225.193
220.621
215.943
211.28
206.766
202.537
198.724
195.442
192.787
190.832
189.625
189.188
189.514
190.576
192.343
194.802
197.975
201.887
206.527
211.788
217.44
223.159
228.61
233.529
237.754
241.223
243.947
245.981
247.415
248.328
248.769
248.832
248.638
248.236
247.636
246.839
245.84
244.626
243.15
241.313
238.946
235.805
231.592
226.022
218.94
210.478
201.134
191.666
182.816
175.015
168.326
162.66
157.989
154.319
151.464
148.85
145.643
141.153
135.195
128.166
120.793
113.798
107.739
103.019
99.9434
98.7354
99.5514
102.49
107.516
114.302
122.215
130.522
138.624
146.161
152.998
159.142
164.627
169.449
173.61
177.193
180.278
182.827
184.769
186.218
187.416
188.407
188.975
188.948
188.413
187.608
186.821
186.268
185.941
185.718
185.557
185.51
185.592
185.708
185.696
185.452
184.966
184.285
183.459
182.513
181.459
180.312
179.097
177.836
176.531
175.178
173.78
172.338
170.854
169.33
167.775
166.195
164.599
162.988
161.357
159.703
158.028
156.335
154.627
152.903
151.169
149.423
147.651
145.838
143.963
141.955
139.763
137.52
135.483
133.763
132.217
130.622
128.875
126.981
124.98
122.877
120.669
118.341
276.325
276.026
275.513
274.783
273.853
272.77
271.579
270.34
269.129
268.034
267.103
266.353
265.806
265.477
265.376
265.497
265.809
266.254
266.759
267.237
267.608
267.8
267.758
267.442
266.826
265.89
264.618
262.994
261.006
258.651
255.932
252.863
249.447
245.681
241.557
237.081
232.269
227.154
221.794
216.283
210.743
205.308
200.117
195.308
191.015
187.365
184.471
182.426
181.293
181.098
181.827
183.42
185.789
188.85
192.568
196.962
202.075
207.878
214.193
220.673
226.908
232.554
237.399
241.359
244.447
246.732
248.307
249.273
249.772
249.902
249.677
249.154
248.418
247.482
246.319
244.892
243.145
240.992
238.302
234.9
230.585
225.178
218.591
210.912
202.47
193.796
185.461
177.877
171.216
165.496
160.694
156.75
153.419
150.147
146.191
140.981
134.423
126.958
119.32
112.215
106.16
101.531
98.6273
97.6608
98.7676
102.049
107.468
114.631
122.797
131.172
139.181
146.531
153.138