/*--------------------------------*- C++ -*----------------------------------*\
  =========                 |
  \\      /  F ield         | OpenFOAM: The Open Source CFD Toolbox
   \\    /   O peration     | Website:  https://openfoam.org
    \\  /    A nd           | Version:  6
     \\/     M anipulation  |
\*---------------------------------------------------------------------------*/
FoamFile
{
    version     2.0;
    format      ascii;
    class       surfaceScalarField;
    location    "0.4";
    object      phi;
}
// * * * * * * * * * * * * * * * * * * * * * * * * * * * * * * * * * * * * * //

dimensions      [0 3 -1 0 0 0 0];

internalField   nonuniform List<scalar> 
24170
(
3.07017e-06
7.77852e-08
2.98303e-06
8.71399e-08
2.90571e-06
7.73206e-08
2.80985e-06
9.58512e-08
2.70014e-06
1.09714e-07
2.59125e-06
1.0889e-07
2.48727e-06
1.03977e-07
2.38698e-06
1.00292e-07
2.29238e-06
9.46061e-08
2.20831e-06
8.4067e-08
2.13802e-06
7.0294e-08
2.07988e-06
5.81377e-08
2.02554e-06
5.43347e-08
1.96836e-06
5.71844e-08
1.90607e-06
6.2291e-08
1.83371e-06
7.23531e-08
1.74906e-06
8.46555e-08
1.23804e-07
1.62525e-06
3.41254e-06
1.45603e-07
3.40542e-06
9.42609e-08
3.39178e-06
9.09633e-08
3.3996e-06
8.80298e-08
3.43116e-06
7.81541e-08
3.46381e-06
7.62468e-08
3.4773e-06
9.04833e-08
3.46536e-06
1.12227e-07
3.43471e-06
1.25259e-07
3.3982e-06
1.20578e-07
3.36559e-06
1.02902e-07
3.34117e-06
8.25549e-08
3.32519e-06
7.03159e-08
3.3128e-06
6.95811e-08
3.29963e-06
7.54523e-08
3.2836e-06
8.83851e-08
3.25863e-06
1.09629e-07
1.59901e-07
3.22253e-06
3.60903e-06
9.486e-08
3.59089e-06
1.12401e-07
3.56498e-06
1.16872e-07
3.57136e-06
8.16456e-08
3.59607e-06
5.34505e-08
3.62295e-06
4.93601e-08
3.64863e-06
6.48112e-08
3.67511e-06
8.5738e-08
3.70201e-06
9.83633e-08
3.72571e-06
9.68777e-08
3.74134e-06
8.72768e-08
3.74564e-06
7.82496e-08
3.74025e-06
7.57044e-08
3.7285e-06
8.13347e-08
3.71447e-06
8.94811e-08
3.7016e-06
1.01258e-07
3.69282e-06
1.18404e-07
1.48959e-07
3.70376e-06
3.8537e-06
1.90493e-08
3.90973e-06
5.63655e-08
3.92597e-06
1.00637e-07
3.93206e-06
7.55476e-08
3.94012e-06
4.5391e-08
3.94518e-06
4.43067e-08
3.94275e-06
6.7234e-08
3.93604e-06
9.24568e-08
3.93082e-06
1.03579e-07
3.92974e-06
9.79608e-08
3.93216e-06
8.48559e-08
3.93579e-06
7.46171e-08
3.9393e-06
7.21919e-08
3.94208e-06
7.85583e-08
3.94453e-06
8.7031e-08
3.94814e-06
9.76501e-08
3.95771e-06
1.08833e-07
1.21405e-07
3.98526e-06
4.29492e-06
-1.66817e-08
4.2535e-06
9.77897e-08
4.22349e-06
1.30649e-07
4.21471e-06
8.43275e-08
4.21218e-06
4.79145e-08
4.20873e-06
4.77619e-08
4.20667e-06
6.9288e-08
4.20884e-06
9.02883e-08
4.21476e-06
9.76623e-08
4.22149e-06
9.12266e-08
4.22632e-06
8.00335e-08
4.22752e-06
7.34117e-08
4.22548e-06
7.42301e-08
4.22199e-06
8.20548e-08
4.21851e-06
9.05038e-08
4.21824e-06
9.79259e-08
4.22612e-06
1.00948e-07
9.97219e-08
4.24781e-06
4.44965e-06
-7.73956e-09
4.46417e-06
8.32646e-08
4.48924e-06
1.05584e-07
4.49653e-06
7.70376e-08
4.4847e-06
5.9743e-08
4.47186e-06
6.06069e-08
4.47206e-06
6.90799e-08
4.48534e-06
7.70123e-08
4.50233e-06
8.06756e-08
4.51379e-06
7.97617e-08
4.51662e-06
7.72091e-08
4.5135e-06
7.65319e-08
4.50929e-06
7.84364e-08
4.50839e-06
8.29519e-08
4.51185e-06
8.7044e-08
4.5211e-06
8.86822e-08
4.5355e-06
8.65444e-08
8.02707e-08
4.55495e-06
4.87128e-06
3.65152e-08
4.80507e-06
1.49472e-07
4.78798e-06
1.22673e-07
4.80572e-06
5.93018e-08
4.83286e-06
3.26017e-08
4.85504e-06
3.84277e-08
4.87292e-06
5.1196e-08
4.88917e-06
6.07621e-08
4.90115e-06
6.87015e-08
4.90475e-06
7.61546e-08
4.89996e-06
8.1999e-08
4.89124e-06
8.52579e-08
4.88405e-06
8.56189e-08
4.88303e-06
8.39741e-08
4.88914e-06
8.09405e-08
4.9017e-06
7.61173e-08
4.91832e-06
6.9924e-08
6.12611e-08
4.93733e-06
5.23251e-06
1.01993e-07
5.21508e-06
1.66907e-07
5.22876e-06
1.08993e-07
5.22253e-06
6.55286e-08
5.19817e-06
5.69651e-08
5.18028e-06
5.63168e-08
5.17956e-06
5.19099e-08
5.19162e-06
4.87067e-08
5.20752e-06
5.27988e-08
5.22014e-06
6.35369e-08
5.22589e-06
7.62524e-08
5.22466e-06
8.64846e-08
5.21897e-06
9.13128e-08
5.21319e-06
8.97481e-08
5.21118e-06
8.29547e-08
5.21503e-06
7.2263e-08
5.22512e-06
5.98332e-08
4.56055e-08
5.24078e-06
5.49577e-06
-2.53912e-08
5.55136e-06
1.11318e-07
5.518e-06
1.42353e-07
5.46291e-06
1.20617e-07
5.43412e-06
8.5753e-08
5.43346e-06
5.69737e-08
5.44485e-06
4.05258e-08
5.46042e-06
3.31365e-08
5.48201e-06
3.12064e-08
5.51334e-06
3.22078e-08
5.55399e-06
3.55998e-08
5.59838e-06
4.20948e-08
5.63803e-06
5.16641e-08
5.66479e-06
6.29932e-08
5.67495e-06
7.27903e-08
5.66954e-06
7.76755e-08
5.65376e-06
7.56091e-08
6.37411e-08
5.63563e-06
5.91896e-06
2.09944e-08
5.95498e-06
7.53071e-08
5.99413e-06
1.03195e-07
6.02984e-06
8.49117e-08
6.06009e-06
5.55072e-08
6.07342e-06
4.36351e-08
6.06372e-06
5.02272e-08
6.03626e-06
6.05979e-08
6.00553e-06
6.19332e-08
5.98573e-06
5.20166e-08
5.98268e-06
3.86424e-08
5.99295e-06
3.1825e-08
6.00823e-06
3.639e-08
6.01961e-06
5.16115e-08
6.02137e-06
7.10328e-08
6.01239e-06
8.66524e-08
5.99551e-06
9.24926e-08
8.29449e-08
5.9763e-06
6.34484e-06
3.91012e-08
6.39311e-06
2.70327e-08
6.41353e-06
8.27703e-08
6.39234e-06
1.06108e-07
6.37141e-06
7.64383e-08
6.382e-06
3.30436e-08
6.42081e-06
1.14141e-08
6.46782e-06
1.35894e-08
6.50574e-06
2.40166e-08
6.52505e-06
3.27032e-08
6.52316e-06
4.05372e-08
6.50299e-06
5.19855e-08
6.47164e-06
6.77414e-08
6.4381e-06
8.51539e-08
6.40894e-06
1.00196e-07
6.3882e-06
1.07394e-07
6.3754e-06
1.0529e-07
9.11269e-08
6.36722e-06
5.66512e-06
2.82586e-08
5.68499e-06
7.16028e-09
5.69206e-06
7.57067e-08
5.69177e-06
1.06394e-07
5.69964e-06
6.85728e-08
5.71437e-06
1.83043e-08
5.72371e-06
2.07571e-09
5.72028e-06
1.70244e-08
5.70831e-06
3.59849e-08
5.69768e-06
4.33315e-08
5.69543e-06
4.27887e-08
5.70285e-06
4.45678e-08
5.71681e-06
5.37769e-08
5.7337e-06
6.82672e-08
5.75024e-06
8.36521e-08
5.76385e-06
9.37825e-08
5.77223e-06
9.69105e-08
8.95444e-08
5.77382e-06
7.00684e-06
1.05245e-07
6.94647e-06
6.75333e-08
6.9689e-06
5.32724e-08
7.01735e-06
5.79457e-08
7.04755e-06
3.83704e-08
7.04814e-06
1.77151e-08
7.03096e-06
1.92538e-08
7.01185e-06
3.61373e-08
6.99858e-06
4.92504e-08
6.99105e-06
5.08675e-08
6.98612e-06
4.77179e-08
6.98194e-06
4.87422e-08
6.97791e-06
5.78092e-08
6.97473e-06
7.14465e-08
6.97326e-06
8.51215e-08
6.97377e-06
9.32732e-08
6.97684e-06
9.38384e-08
8.65463e-08
6.97984e-06
8.40437e-06
1.2741e-07
8.41716e-06
5.47429e-08
8.44912e-06
2.13131e-08
8.48715e-06
1.99192e-08
8.52261e-06
2.90896e-09
8.54597e-06
-5.64349e-09
8.55779e-06
7.42747e-09
8.56254e-06
3.13861e-08
8.56099e-06
5.0805e-08
8.55256e-06
5.92957e-08
8.53962e-06
6.06587e-08
8.5276e-06
6.07632e-08
8.52204e-06
6.33647e-08
8.52595e-06
6.75351e-08
8.53896e-06
7.21122e-08
8.55783e-06
7.4405e-08
8.57743e-06
7.42368e-08
7.05816e-08
8.5934e-06
1.03984e-05
1.93922e-07
1.03701e-05
8.30541e-08
1.03483e-05
4.31695e-08
1.03315e-05
3.66561e-08
1.03151e-05
1.9286e-08
1.03013e-05
8.17242e-09
1.02944e-05
1.432e-08
1.03004e-05
2.5378e-08
1.03213e-05
2.99081e-08
1.03528e-05
2.78665e-08
1.03867e-05
2.6696e-08
1.04153e-05
3.21441e-08
1.0434e-05
4.46926e-08
1.0441e-05
6.05788e-08
1.04388e-05
7.43344e-08
1.04296e-05
8.35253e-08
1.04177e-05
8.6194e-08
8.4611e-08
1.04036e-05
1.25714e-05
1.24014e-07
1.25523e-05
1.02152e-07
1.25386e-05
5.67877e-08
1.25981e-05
-2.27747e-08
1.27036e-05
-8.62406e-08
1.27821e-05
-7.02844e-08
1.27984e-05
-2.05323e-09
1.27715e-05
5.22866e-08
1.27396e-05
6.18255e-08
1.27254e-05
4.20928e-08
1.27267e-05
2.53474e-08
1.27278e-05
3.10747e-08
1.27145e-05
5.79978e-08
1.26824e-05
9.26928e-08
1.26377e-05
1.18961e-07
1.25919e-05
1.29419e-07
1.25553e-05
1.2274e-07
1.058e-07
1.25341e-05
1.54746e-05
-2.26439e-07
1.54919e-05
8.48885e-08
1.54267e-05
1.22028e-07
1.53632e-05
4.06555e-08
1.52999e-05
-2.29273e-08
1.52602e-05
-3.05609e-08
1.52589e-05
-7.36386e-10
1.52835e-05
2.76337e-08
1.531e-05
3.53414e-08
1.53228e-05
2.93556e-08
1.53234e-05
2.47487e-08
1.53242e-05
3.02733e-08
1.53371e-05
4.50377e-08
1.53667e-05
6.31528e-08
1.54072e-05
7.84562e-08
1.54489e-05
8.76715e-08
1.54797e-05
9.18966e-08
9.16974e-08
1.54938e-05
1.85052e-05
-1.25471e-07
1.86192e-05
-2.90826e-08
1.87132e-05
2.80304e-08
1.87534e-05
4.56718e-10
1.87495e-05
-1.89935e-08
1.87331e-05
-1.41705e-08
1.87322e-05
1.60708e-10
1.87499e-05
9.92559e-09
1.87695e-05
1.56816e-08
1.87736e-05
2.52544e-08
1.87589e-05
3.95425e-08
1.87363e-05
5.27771e-08
1.87216e-05
5.97881e-08
1.87238e-05
6.09249e-08
1.87414e-05
6.08645e-08
1.87654e-05
6.36902e-08
1.87848e-05
7.2533e-08
8.79762e-08
1.87885e-05
2.3037e-05
1.09652e-07
2.30813e-05
-7.33458e-08
2.31809e-05
-7.15954e-08
2.31736e-05
7.74164e-09
2.30858e-05
6.88862e-08
2.29943e-05
7.72509e-08
2.29506e-05
4.39253e-08
2.29531e-05
7.38148e-09
2.2974e-05
-5.17501e-09
2.29918e-05
7.44058e-09
2.30003e-05
3.10635e-08
2.30024e-05
5.06381e-08
2.30036e-05
5.85913e-08
2.30094e-05
5.51642e-08
2.30227e-05
4.75733e-08
2.30424e-05
4.3986e-08
2.30655e-05
4.9363e-08
6.70938e-08
2.30864e-05
1.70922e-05
1.25686e-07
1.69455e-05
7.33859e-08
1.68423e-05
3.16107e-08
1.68262e-05
2.37825e-08
1.68574e-05
3.77081e-08
1.68864e-05
4.82297e-08
1.68874e-05
4.29448e-08
1.68637e-05
3.10934e-08
1.68325e-05
2.60442e-08
1.68084e-05
3.1559e-08
1.67969e-05
4.25293e-08
1.67962e-05
5.13517e-08
1.68008e-05
5.40141e-08
1.6806e-05
4.99451e-08
1.68123e-05
4.12942e-08
1.68229e-05
3.33346e-08
1.68436e-05
2.86749e-08
3.44326e-08
1.68763e-05
1.46637e-05
1.17336e-07
1.46358e-05
1.01289e-07
1.46388e-05
2.85548e-08
1.46517e-05
1.08848e-08
1.46708e-05
1.86129e-08
1.46916e-05
2.74455e-08
1.46888e-05
4.57811e-08
1.46451e-05
7.47347e-08
1.45721e-05
9.90341e-08
1.45008e-05
1.02941e-07
1.44597e-05
8.35614e-08
1.44605e-05
5.05491e-08
1.44965e-05
1.80431e-08
1.45497e-05
-3.22628e-09
1.46013e-05
-1.0358e-08
1.46399e-05
-5.19979e-09
1.46611e-05
7.43043e-09
2.24675e-08
1.46731e-05
1.27389e-05
-1.26893e-08
1.27981e-05
4.20956e-08
1.27711e-05
5.5498e-08
1.2756e-05
2.59841e-08
1.27744e-05
2.37634e-10
1.28087e-05
-6.85658e-09
1.28352e-05
1.93309e-08
1.28433e-05
6.65827e-08
1.28413e-05
1.01002e-07
1.28453e-05
9.90079e-08
1.28672e-05
6.16026e-08
1.29106e-05
7.22707e-09
1.29704e-05
-4.17499e-08
1.30364e-05
-6.93027e-08
1.30956e-05
-6.95278e-08
1.31375e-05
-4.70712e-08
1.31554e-05
-1.04806e-08
3.01571e-08
1.31477e-05
1.09821e-05
1.78081e-07
1.09497e-05
7.4482e-08
1.0976e-05
2.91905e-08
1.09923e-05
9.66668e-09
1.09838e-05
8.8027e-09
1.09639e-05
1.30088e-08
1.09566e-05
2.6682e-08
1.09724e-05
5.07028e-08
1.10037e-05
6.97823e-08
1.10356e-05
6.71066e-08
1.10589e-05
3.82915e-08
1.10738e-05
-7.71598e-09
1.10868e-05
-5.47462e-08
1.11062e-05
-8.86832e-08
1.11381e-05
-1.01461e-07
1.11838e-05
-9.27503e-08
1.12407e-05
-6.74122e-08
-3.16061e-08
1.13025e-05
9.48145e-06
-1.26186e-07
9.62367e-06
-6.77436e-08
9.65477e-06
-1.90892e-09
9.64422e-06
2.02185e-08
9.63411e-06
1.8911e-08
9.63371e-06
1.34153e-08
9.64148e-06
1.89124e-08
9.6592e-06
3.29787e-08
9.68815e-06
4.08362e-08
9.72366e-06
3.1595e-08
9.75623e-06
5.72273e-09
9.77639e-06
-2.7879e-08
9.77928e-06
-5.76337e-08
9.76502e-06
-7.4424e-08
9.73835e-06
-7.47959e-08
9.70645e-06
-6.08493e-08
9.67687e-06
-3.78292e-08
-1.06783e-08
9.65594e-06
8.34464e-06
-1.00204e-07
8.41945e-06
-1.42548e-07
8.47801e-06
-6.04692e-08
8.49159e-06
6.64098e-09
8.48586e-06
2.46342e-08
8.4911e-06
8.18348e-09
8.51435e-06
-4.34604e-09
8.54062e-06
6.71114e-09
8.55205e-06
2.94094e-08
8.54305e-06
4.05947e-08
8.52123e-06
2.75388e-08
8.49905e-06
-5.69539e-09
8.48587e-06
-4.44573e-08
8.48436e-06
-7.2912e-08
8.49141e-06
-8.18477e-08
8.50211e-06
-7.15446e-08
8.512e-06
-4.77178e-08
-1.82982e-08
8.51962e-06
7.06795e-06
-6.91249e-08
7.06919e-06
-1.43792e-07
7.12878e-06
-1.20061e-07
7.20735e-06
-7.19225e-08
7.2663e-06
-3.43182e-08
7.30284e-06
-2.83606e-08
7.3362e-06
-3.7708e-08
7.38088e-06
-3.79647e-08
7.43194e-06
-2.16489e-08
7.47209e-06
4.46607e-10
7.48686e-06
1.27652e-08
7.47357e-06
7.59385e-09
7.44084e-06
-1.17266e-08
7.40288e-06
-3.49471e-08
7.37255e-06
-5.15271e-08
7.35703e-06
-5.60178e-08
7.3579e-06
-4.85879e-08
-3.25091e-08
7.37211e-06
6.39449e-06
-1.78541e-07
6.39456e-06
-1.43864e-07
6.40253e-06
-1.28025e-07
6.42963e-06
-9.90216e-08
6.43272e-06
-3.74116e-08
6.40502e-06
-6.64613e-10
6.37654e-06
-9.22565e-09
6.37402e-06
-3.54442e-08
6.40044e-06
-4.80707e-08
6.44064e-06
-3.97523e-08
6.47521e-06
-2.18011e-08
6.49123e-06
-8.43232e-09
6.48622e-06
-6.71009e-09
6.4666e-06
-1.53337e-08
6.44307e-06
-2.79945e-08
6.42489e-06
-3.78353e-08
6.41786e-06
-4.15584e-08
-3.8376e-08
6.42373e-06
5.47371e-06
-1.15509e-07
5.43973e-06
-1.09881e-07
5.42911e-06
-1.17402e-07
5.43652e-06
-1.06438e-07
5.46795e-06
-6.88365e-08
5.51629e-06
-4.90077e-08
5.562e-06
-5.49302e-08
5.59209e-06
-6.5534e-08
5.60787e-06
-6.38523e-08
5.61751e-06
-4.93974e-08
5.62649e-06
-3.07807e-08
5.6347e-06
-1.66438e-08
5.63894e-06
-1.09478e-08
5.63683e-06
-1.3217e-08
5.62912e-06
-2.02875e-08
5.61933e-06
-2.80478e-08
5.61257e-06
-3.48006e-08
-3.73995e-08
5.6116e-06
4.86259e-06
-8.11093e-08
4.87291e-06
-1.20206e-07
4.87171e-06
-1.16201e-07
4.84716e-06
-8.18889e-08
4.83227e-06
-5.39492e-08
4.82877e-06
-4.55089e-08
4.82335e-06
-4.95088e-08
4.81434e-06
-5.65223e-08
4.81101e-06
-6.05207e-08
4.82067e-06
-5.90588e-08
4.84194e-06
-5.20528e-08
4.86656e-06
-4.12654e-08
4.88521e-06
-2.95953e-08
4.89274e-06
-2.07476e-08
4.88985e-06
-1.73908e-08
4.88121e-06
-1.94142e-08
4.87182e-06
-2.54049e-08
-3.14409e-08
4.86586e-06
4.12456e-06
4.00436e-06
3.88815e-06
3.80627e-06
3.75232e-06
3.70681e-06
3.6573e-06
3.60078e-06
3.54026e-06
3.4812e-06
3.42914e-06
3.38788e-06
3.35828e-06
3.33754e-06
3.32015e-06
3.30073e-06
3.27533e-06
3.24389e-06
-1.71385e-07
1.71385e-07
-3.28505e-07
1.57119e-07
-4.67096e-07
1.38592e-07
-5.17331e-07
5.02346e-08
-3.67751e-07
-1.4958e-07
1.51065e-08
-3.82858e-07
5.83675e-07
-5.68568e-07
1.25959e-06
-6.75916e-07
1.97457e-06
-7.14977e-07
2.67741e-06
-7.02847e-07
3.33377e-06
-6.56357e-07
3.92258e-06
-5.88805e-07
4.4324e-06
-5.0982e-07
4.85786e-06
-4.25466e-07
5.19708e-06
-3.39213e-07
5.45008e-06
-2.53004e-07
5.61766e-06
-1.67579e-07
5.701e-06
-8.33346e-08
5.70019e-06
8.03215e-10
5.61516e-06
8.5032e-08
5.44762e-06
1.67535e-07
5.20058e-06
2.4704e-07
4.87813e-06
3.22454e-07
4.48539e-06
3.92745e-07
4.02933e-06
4.56056e-07
3.52035e-06
5.08982e-07
2.97462e-06
5.45723e-07
2.41634e-06
5.58288e-07
1.87659e-06
5.39742e-07
1.38355e-06
4.93042e-07
9.51026e-07
4.32526e-07
5.76002e-07
3.75024e-07
2.4606e-07
3.29942e-07
-5.43994e-08
3.0046e-07
-3.33737e-07
2.79337e-07
-5.71419e-07
2.37682e-07
-7.11568e-07
1.40149e-07
-7.5356e-07
4.19924e-08
-7.53361e-07
-1.98778e-10
-7.49231e-07
-4.12976e-09
-7.95095e-07
4.58638e-08
-9.93334e-07
1.98239e-07
-1.27817e-06
2.84837e-07
-1.4768e-06
1.9863e-07
-1.52236e-06
4.55597e-08
-1.4384e-06
-8.39561e-08
-1.21647e-06
-2.21933e-07
-8.95956e-07
-3.20515e-07
-5.18064e-07
-3.77892e-07
-9.94033e-08
-4.1866e-07
3.49997e-07
-4.49401e-07
8.20921e-07
-4.70924e-07
1.30497e-06
-4.84048e-07
1.78666e-06
-4.81694e-07
2.26037e-06
-4.73704e-07
2.72398e-06
-4.63617e-07
3.17189e-06
-4.47904e-07
3.58328e-06
-4.11389e-07
3.93582e-06
-3.52545e-07
4.22542e-06
-2.89599e-07
4.44311e-06
-2.17684e-07
4.56171e-06
-1.18606e-07
4.5678e-06
-6.0915e-09
4.47055e-06
9.72528e-08
4.27857e-06
1.91978e-07
4.00853e-06
2.7004e-07
3.70406e-06
3.04475e-07
3.42848e-06
2.75576e-07
3.24978e-06
1.78704e-07
3.18598e-06
6.37915e-08
3.16836e-06
1.76225e-08
3.14126e-06
2.71051e-08
3.06612e-06
7.51417e-08
2.88566e-06
1.80452e-07
2.73646e-06
1.49206e-07
2.8701e-06
-1.33647e-07
3.31712e-06
-4.47018e-07
3.85364e-06
-5.36518e-07
4.25796e-06
-4.04316e-07
4.48707e-06
-2.29116e-07
4.50523e-06
-1.8153e-08
4.22394e-06
2.81281e-07
3.62851e-06
5.95431e-07
2.74345e-06
8.85059e-07
1.62647e-06
1.11699e-06
5.00453e-07
1.12601e-06
-3.46731e-07
8.47184e-07
-7.65304e-07
4.18573e-07
-1.06738e-06
3.02078e-07
-2.3301e-06
1.26271e-06
-5.02115e-06
2.69105e-06
-8.24306e-06
3.22191e-06
-1.04936e-05
2.25057e-06
-1.20441e-05
1.55044e-06
-1.3235e-05
1.19095e-06
-1.3901e-05
6.65996e-07
-1.44253e-05
5.24243e-07
-1.47737e-05
3.48492e-07
-1.50259e-05
2.52154e-07
-1.52514e-05
2.25497e-07
-1.53939e-05
1.42489e-07
-1.55003e-05
1.06458e-07
-1.55308e-05
3.0443e-08
-1.54784e-05
-5.23718e-08
-1.53533e-05
-1.25152e-07
-1.51406e-05
-2.12663e-07
-1.48506e-05
-2.89967e-07
-1.44864e-05
-3.64194e-07
-1.4058e-05
-4.28425e-07
-1.35808e-05
-4.77218e-07
-1.30613e-05
-5.19465e-07
-1.25108e-05
-5.50533e-07
-1.19413e-05
-5.69483e-07
-1.13598e-05
-5.81518e-07
-1.07714e-05
-5.88432e-07
-1.01808e-05
-5.9054e-07
-9.5929e-06
-5.87922e-07
-9.01204e-06
-5.80863e-07
-8.44216e-06
-5.69883e-07
-7.88687e-06
-5.5529e-07
-7.34895e-06
-5.37916e-07
-6.83009e-06
-5.18866e-07
-6.33094e-06
-4.99142e-07
-5.85128e-06
-4.79667e-07
-5.39008e-06
-4.61196e-07
-4.94588e-06
-4.44202e-07
-4.51695e-06
-4.28932e-07
-4.10148e-06
-4.15474e-07
-3.69778e-06
-4.03692e-07
-3.30451e-06
-3.93268e-07
-2.9208e-06
-3.83711e-07
-2.54643e-06
-3.74374e-07
-2.18186e-06
-3.64569e-07
-1.82811e-06
-3.53745e-07
-1.48587e-06
-3.42243e-07
-1.15434e-06
-3.31533e-07
-8.31823e-07
-3.22516e-07
-5.17174e-07
-3.14649e-07
-2.09085e-07
-3.08089e-07
8.94281e-08
-2.98513e-07
3.8146e-07
-2.92032e-07
6.74061e-07
-2.92601e-07
9.75929e-07
-3.01868e-07
1.2928e-06
-3.1687e-07
1.6267e-06
-3.33902e-07
1.97644e-06
-3.49734e-07
2.33761e-06
-3.61173e-07
2.70371e-06
-3.66102e-07
3.06873e-06
-3.65019e-07
3.42928e-06
-3.60547e-07
3.78255e-06
-3.53277e-07
4.11758e-06
-3.35021e-07
4.4058e-06
-2.88227e-07
4.60987e-06
-2.04067e-07
4.72128e-06
-1.11408e-07
4.79752e-06
-7.62384e-08
4.93838e-06
-1.40862e-07
5.17558e-06
-2.372e-07
5.37087e-06
-1.9529e-07
5.32118e-06
4.96915e-08
4.98875e-06
3.32421e-07
4.54509e-06
4.43661e-07
4.2512e-06
2.93897e-07
4.29957e-06
-4.83702e-08
4.56505e-06
-2.65487e-07
4.5755e-06
-1.04409e-08
4.07028e-06
5.05215e-07
3.3184e-06
7.51885e-07
2.70676e-06
6.1164e-07
2.40415e-06
3.02604e-07
2.34612e-06
5.80347e-08
2.38525e-06
-3.91324e-08
2.4122e-06
-2.69532e-08
2.38421e-06
2.79887e-08
2.30208e-06
8.21334e-08
2.20061e-06
1.01468e-07
2.1031e-06
9.75094e-08
2.03377e-06
6.93357e-08
1.94646e-06
8.73024e-08
1.51922e-07
1.79454e-06
-2.51063e-08
1.96492e-07
-8.92777e-08
2.2129e-07
-4.1345e-08
9.06592e-08
2.88417e-07
-2.79527e-07
8.69247e-07
-7.3041e-07
1.5753e-06
-1.08891e-06
2.31483e-06
-1.3081e-06
3.03634e-06
-1.39742e-06
3.70962e-06
-1.38826e-06
4.31999e-06
-1.31322e-06
4.86146e-06
-1.19783e-06
5.33247e-06
-1.05981e-06
5.73331e-06
-9.10661e-07
6.06522e-06
-7.57377e-07
6.32998e-06
-6.03968e-07
6.52926e-06
-4.52285e-07
6.66503e-06
-3.0335e-07
6.73913e-06
-1.57432e-07
6.75574e-06
-1.58156e-08
6.72074e-06
1.20038e-07
6.63591e-06
2.52359e-07
6.50167e-06
3.81283e-07
6.31807e-06
5.06051e-07
6.08545e-06
6.25369e-07
5.8039e-06
7.37607e-07
5.47255e-06
8.40328e-07
5.08902e-06
9.29261e-07
4.64921e-06
9.98095e-07
4.14976e-06
1.03919e-06
3.59703e-06
1.04577e-06
3.01803e-06
1.01153e-06
2.45728e-06
9.35774e-07
1.95535e-06
8.31877e-07
1.53039e-06
7.25419e-07
1.17683e-06
6.32895e-07
8.61286e-07
5.53224e-07
5.19419e-07
4.82016e-07
1.24014e-07
4.37398e-07
-2.90719e-07
4.14534e-07
-6.41105e-07
3.46256e-07
-8.52412e-07
2.5717e-07
-9.00691e-07
2.46519e-07
-8.40433e-07
2.24579e-07
-6.96958e-07
5.51549e-08
-5.02591e-07
-1.48807e-07
-2.66153e-07
-3.20394e-07
2.34857e-08
-5.11572e-07
3.57585e-07
-6.54615e-07
7.31008e-07
-7.51315e-07
1.13731e-06
-8.24966e-07
1.55762e-06
-8.69709e-07
1.97764e-06
-8.90946e-07
2.39328e-06
-8.99684e-07
2.80709e-06
-8.95504e-07
3.21808e-06
-8.84698e-07
3.61525e-06
-8.60779e-07
4.00203e-06
-8.34688e-07
4.37207e-06
-7.81425e-07
4.7137e-06
-6.94175e-07
5.01336e-06
-5.8926e-07
5.25866e-06
-4.62991e-07
5.43212e-06
-2.9206e-07
5.52576e-06
-9.97369e-08
5.56111e-06
6.19098e-08
5.53042e-06
2.22669e-07
5.38602e-06
4.14437e-07
5.14069e-06
5.49801e-07
4.86502e-06
5.51247e-07
4.6038e-06
4.39921e-07
4.36987e-06
2.97727e-07
4.17126e-06
2.1623e-07
4.00361e-06
1.94759e-07
3.8284e-06
2.50345e-07
3.71436e-06
2.94495e-07
3.86442e-06
-8.54653e-10
4.25114e-06
-5.20366e-07
4.65011e-06
-8.4599e-07
4.92687e-06
-8.13277e-07
4.98133e-06
-4.58777e-07
4.75038e-06
1.83638e-09
4.26693e-06
4.653e-07
3.59289e-06
9.55316e-07
2.76014e-06
1.42818e-06
1.79161e-06
1.85359e-06
7.68292e-07
2.14031e-06
-1.80588e-07
2.07489e-06
-1.05517e-06
1.72177e-06
-2.20456e-06
1.56796e-06
-4.46076e-06
2.55828e-06
-7.73292e-06
4.53488e-06
-1.03609e-05
5.31902e-06
-1.14231e-05
4.28408e-06
-1.2147e-05
2.97449e-06
-1.27772e-05
2.18063e-06
-1.30849e-05
1.49863e-06
-1.33988e-05
9.79882e-07
-1.3634e-05
7.59446e-07
-1.38086e-05
5.23101e-07
-1.3984e-05
4.27593e-07
-1.41106e-05
3.52137e-07
-1.42181e-05
2.49949e-07
-1.42838e-05
1.72108e-07
-1.42878e-05
3.45352e-08
-1.42303e-05
-1.09969e-07
-1.40925e-05
-2.62922e-07
-1.38732e-05
-4.31965e-07
-1.35731e-05
-5.90012e-07
-1.31969e-05
-7.4038e-07
-1.27588e-05
-8.66535e-07
-1.22726e-05
-9.63468e-07
-1.17496e-05
-1.04242e-06
-1.11988e-05
-1.1014e-06
-1.06293e-05
-1.13889e-06
-1.00504e-05
-1.16047e-06
-9.46747e-06
-1.17136e-06
-8.88438e-06
-1.17363e-06
-8.30569e-06
-1.16662e-06
-7.7363e-06
-1.15025e-06
-7.18032e-06
-1.12586e-06
-6.64154e-06
-1.09407e-06
-6.12278e-06
-1.05667e-06
-5.62549e-06
-1.01616e-06
-5.14996e-06
-9.74672e-07
-4.69552e-06
-9.34112e-07
-4.26079e-06
-8.95921e-07
-3.84402e-06
-8.60971e-07
-3.44326e-06
-8.29694e-07
-3.05651e-06
-8.02227e-07
-2.68186e-06
-7.78333e-07
-2.31772e-06
-7.5741e-07
-1.9629e-06
-7.38538e-07
-1.61663e-06
-7.20645e-07
-1.27863e-06
-7.02565e-07
-9.491e-07
-6.83275e-07
-6.28282e-07
-6.63062e-07
-3.16941e-07
-6.42873e-07
-1.734e-08
-6.22117e-07
2.68927e-07
-6.00916e-07
5.43399e-07
-5.82561e-07
8.11729e-07
-5.66843e-07
1.07821e-06
-5.58509e-07
1.34774e-06
-5.62132e-07
1.62466e-06
-5.78794e-07
1.91283e-06
-6.05038e-07
2.21429e-06
-6.35362e-07
2.52826e-06
-6.63708e-07
2.85075e-06
-6.83658e-07
3.17495e-06
-6.90306e-07
3.49377e-06
-6.83839e-07
3.80461e-06
-6.71383e-07
4.11137e-06
-6.60035e-07
4.41713e-06
-6.40781e-07
4.71116e-06
-5.82264e-07
4.96361e-06
-4.56511e-07
5.13401e-06
-2.81814e-07
5.19548e-06
-1.377e-07
5.18007e-06
-1.25458e-07
5.21109e-06
-2.68215e-07
5.42919e-06
-4.13397e-07
5.80704e-06
-3.28154e-07
6.13108e-06
8.38311e-09
6.22222e-06
3.52518e-07
6.01871e-06
4.97405e-07
5.56007e-06
4.10269e-07
5.12924e-06
1.65342e-07
5.10199e-06
1.68153e-08
5.45872e-06
1.4848e-07
5.80924e-06
4.01364e-07
5.80579e-06
6.1509e-07
5.40702e-06
7.01379e-07
4.87169e-06
5.93366e-07
4.44955e-06
3.83008e-07
4.16332e-06
2.59269e-07
3.91312e-06
2.78195e-07
3.64437e-06
3.50878e-07
3.38467e-06
3.61176e-07
3.18269e-06
2.99481e-07
3.05672e-06
1.95308e-07
2.96042e-06
1.83603e-07
2.44452e-07
2.86789e-06
3.28715e-08
1.6362e-07
1.3804e-07
1.16122e-07
6.84023e-07
-4.55324e-07
1.53254e-06
-1.12805e-06
2.41613e-06
-1.61399e-06
3.20559e-06
-1.87837e-06
3.86359e-06
-1.96609e-06
4.39674e-06
-1.93058e-06
4.82763e-06
-1.81915e-06
5.18117e-06
-1.66676e-06
5.47823e-06
-1.49489e-06
5.73301e-06
-1.31459e-06
5.95357e-06
-1.13122e-06
6.14392e-06
-9.47728e-07
6.30592e-06
-7.65971e-07
6.44023e-06
-5.86596e-07
6.54633e-06
-4.09442e-07
6.62293e-06
-2.34031e-07
6.66735e-06
-6.02421e-08
6.67733e-06
1.10062e-07
6.65263e-06
2.77061e-07
6.5938e-06
4.40106e-07
6.50116e-06
5.98696e-07
6.37431e-06
7.52218e-07
6.21199e-06
8.99927e-07
6.01147e-06
1.04085e-06
5.76824e-06
1.17248e-06
5.47627e-06
1.29007e-06
5.12968e-06
1.38577e-06
4.72614e-06
1.44932e-06
4.26875e-06
1.46892e-06
3.77017e-06
1.43436e-06
3.25915e-06
1.34289e-06
2.77788e-06
1.20669e-06
2.36082e-06
1.04996e-06
2.01144e-06
9.02602e-07
1.70305e-06
7.90403e-07
1.42175e-06
7.18704e-07
1.16584e-06
6.70439e-07
9.05617e-07
6.06482e-07
6.51585e-07
5.11202e-07
5.08282e-07
3.89822e-07
5.11644e-07
2.21217e-07
5.70827e-07
-4.02784e-09
6.67247e-07
-2.45228e-07
8.37472e-07
-4.90619e-07
1.03117e-06
-7.05267e-07
1.26052e-06
-8.83973e-07
1.50896e-06
-9.99755e-07
1.75188e-06
-1.06788e-06
1.98028e-06
-1.09811e-06
2.19545e-06
-1.10611e-06
2.40132e-06
-1.10555e-06
2.61434e-06
-1.10853e-06
2.83767e-06
-1.10803e-06
3.07179e-06
-1.09489e-06
3.33047e-06
-1.09337e-06
3.59961e-06
-1.05057e-06
3.8898e-06
-9.8436e-07
4.1887e-06
-8.88162e-07
4.46805e-06
-7.42347e-07
4.70824e-06
-5.32249e-07
4.88597e-06
-2.7746e-07
5.00495e-06
-5.70696e-08
5.10564e-06
1.21979e-07
5.1689e-06
3.51174e-07
5.11681e-06
6.0189e-07
4.94897e-06
7.19084e-07
4.69526e-06
6.93635e-07
4.31051e-06
6.82472e-07
3.84423e-06
6.82515e-07
3.49621e-06
5.42774e-07
3.44528e-06
3.01279e-07
3.7508e-06
-1.10252e-08
4.15657e-06
-4.06623e-07
4.28306e-06
-6.46855e-07
4.00781e-06
-5.7074e-07
3.53027e-06
-3.3574e-07
3.10571e-06
-3.42181e-08
2.81896e-06
2.88593e-07
2.55984e-06
7.24417e-07
2.15323e-06
1.36192e-06
1.53205e-06
2.04937e-06
7.55189e-07
2.63045e-06
-1.16145e-07
3.01164e-06
-1.12655e-06
3.0853e-06
-2.48565e-06
3.08087e-06
-4.64682e-06
3.72914e-06
-7.59978e-06
5.51123e-06
-9.93384e-06
6.86893e-06
-1.07177e-05
6.10288e-06
-1.07082e-05
4.27457e-06
-1.08753e-05
3.14165e-06
-1.10413e-05
2.34658e-06
-1.11482e-05
1.60558e-06
-1.137e-05
1.2017e-06
-1.15522e-05
9.41557e-07
-1.17611e-05
7.32032e-07
-1.19902e-05
6.56665e-07
-1.22068e-05
5.68825e-07
-1.24235e-05
4.66588e-07
-1.25907e-05
3.39346e-07
-1.26894e-05
1.33227e-07
-1.27013e-05
-9.80522e-08
-1.26156e-05
-3.48674e-07
-1.24359e-05
-6.11679e-07
-1.21574e-05
-8.68518e-07
-1.17891e-05
-1.10869e-06
-1.13514e-05
-1.30422e-06
-1.08597e-05
-1.45516e-06
-1.03251e-05
-1.57703e-06
-9.75957e-06
-1.6669e-06
-9.17627e-06
-1.72219e-06
-8.5846e-06
-1.75213e-06
-7.98985e-06
-1.7661e-06
-7.3956e-06
-1.76789e-06
-6.80629e-06
-1.75592e-06
-6.22777e-06
-1.72877e-06
-5.6651e-06
-1.68853e-06
-5.12333e-06
-1.63584e-06
-4.60666e-06
-1.57335e-06
-4.11739e-06
-1.50542e-06
-3.65622e-06
-1.43584e-06
-3.22234e-06
-1.36799e-06
-2.81385e-06
-1.3044e-06
-2.42829e-06
-1.24653e-06
-2.06292e-06
-1.19507e-06
-1.71496e-06
-1.15018e-06
-1.38175e-06
-1.11155e-06
-1.06077e-06
-1.07839e-06
-7.50096e-07
-1.04921e-06
-4.4813e-07
-1.02261e-06
-1.53886e-07
-9.96809e-07
1.32501e-07
-9.69662e-07
4.09758e-07
-9.40318e-07
6.74919e-07
-9.08035e-07
9.25519e-07
-8.72716e-07
1.16305e-06
-8.38445e-07
1.39104e-06
-8.10554e-07
1.61591e-06
-7.91716e-07
1.84252e-06
-7.85118e-07
2.07471e-06
-7.94318e-07
2.31611e-06
-8.20197e-07
2.5701e-06
-8.59023e-07
2.83724e-06
-9.02501e-07
3.11384e-06
-9.40308e-07
3.39305e-06
-9.62872e-07
3.66635e-06
-9.63603e-07
3.92409e-06
-9.41585e-07
4.1587e-06
-9.05992e-07
4.37335e-06
-8.74686e-07
4.58498e-06
-8.52408e-07
4.80593e-06
-8.03212e-07
5.0169e-06
-6.67487e-07
5.16878e-06
-4.33693e-07
5.2206e-06
-1.89519e-07
5.17752e-06
-8.23722e-08
5.11e-06
-2.007e-07
5.1472e-06
-4.50591e-07
5.39027e-06
-5.71226e-07
5.77933e-06
-3.80677e-07
6.10222e-06
2.96262e-08
6.13378e-06
4.65848e-07
5.77015e-06
7.73895e-07
5.20103e-06
7.34459e-07
4.91321e-06
3.04642e-07
5.21597e-06
-1.54288e-07
5.88826e-06
-2.70917e-07
6.44611e-06
5.72317e-08
6.54172e-06
6.05771e-07
6.1747e-06
9.60384e-07
5.60444e-06
9.53271e-07
5.06097e-06
8.0274e-07
4.59628e-06
7.42883e-07
4.18932e-06
7.57835e-07
3.85095e-06
6.99547e-07
3.61469e-06
5.35739e-07
3.47834e-06
3.31667e-07
3.40107e-06
2.60869e-07
3.01994e-07
3.34353e-06
1.01118e-08
1.53508e-07
7.15268e-07
-5.89035e-07
1.78483e-06
-1.52488e-06
2.74575e-06
-2.08898e-06
3.44954e-06
-2.31778e-06
3.9031e-06
-2.33193e-06
4.16626e-06
-2.22925e-06
4.31146e-06
-2.07577e-06
4.40073e-06
-1.90842e-06
4.47576e-06
-1.74179e-06
4.55749e-06
-1.57662e-06
4.65152e-06
-1.40862e-06
4.75552e-06
-1.23522e-06
4.86514e-06
-1.05736e-06
4.97657e-06
-8.77395e-07
5.08656e-06
-6.96593e-07
5.19172e-06
-5.14596e-07
5.28881e-06
-3.3113e-07
5.37505e-06
-1.46482e-07
5.44644e-06
3.86807e-08
5.50136e-06
2.22134e-07
5.53997e-06
4.01495e-07
5.56243e-06
5.76241e-07
5.56717e-06
7.47477e-07
5.55001e-06
9.17083e-07
5.50476e-06
1.0861e-06
5.42383e-06
1.25341e-06
5.29848e-06
1.41543e-06
5.11964e-06
1.56461e-06
4.88003e-06
1.68894e-06
4.57611e-06
1.77283e-06
4.21081e-06
1.79966e-06
3.79833e-06
1.75537e-06
3.36807e-06
1.63695e-06
2.95507e-06
1.46296e-06
2.58407e-06
1.2736e-06
2.26552e-06
1.10896e-06
2.0026e-06
9.81624e-07
1.7916e-06
8.81433e-07
1.61356e-06
7.84528e-07
1.46255e-06
6.62205e-07
1.35815e-06
4.94228e-07
1.30602e-06
2.73346e-07
1.29272e-06
9.26728e-09
1.30952e-06
-2.62021e-07
1.34684e-06
-5.27939e-07
1.37829e-06
-7.36722e-07
1.39044e-06
-8.96124e-07
1.3703e-06
-9.79611e-07
1.31704e-06
-1.01463e-06
1.24034e-06
-1.02141e-06
1.17046e-06
-1.03623e-06
1.13148e-06
-1.06657e-06
1.12992e-06
-1.10696e-06
1.1629e-06
-1.14101e-06
1.25533e-06
-1.18732e-06
1.40343e-06
-1.24148e-06
1.58589e-06
-1.23302e-06
1.82292e-06
-1.22139e-06
2.09172e-06
-1.15696e-06
2.35855e-06
-1.00918e-06
2.6248e-06
-7.98502e-07
2.89724e-06
-5.49894e-07
3.14333e-06
-3.03159e-07
3.31667e-06
-5.13592e-08
3.41827e-06
2.49574e-07
3.46501e-06
5.55148e-07
3.43207e-06
7.52024e-07
3.29433e-06
8.31368e-07
3.12868e-06
8.48127e-07
3.0482e-06
7.62996e-07
3.04348e-06
5.47495e-07
3.05167e-06
2.93091e-07
2.95448e-06
8.61574e-08
2.58126e-06
-3.34033e-08
2.05535e-06
-1.20942e-07
1.75755e-06
-2.72944e-07
1.9059e-06
-4.84091e-07
2.32866e-06
-4.56973e-07
2.62034e-06
-3.08526e-09
2.53625e-06
8.08499e-07
2.08881e-06
1.80937e-06
1.32434e-06
2.81383e-06
3.21086e-07
3.6337e-06
-8.91081e-07
4.22381e-06
-2.3423e-06
4.53651e-06
-4.19981e-06
4.93838e-06
-6.69442e-06
6.22375e-06
-9.02288e-06
7.83969e-06
-9.92621e-06
7.77226e-06
-9.66594e-06
5.84261e-06
-9.53608e-06
4.14471e-06
-9.62516e-06
3.23073e-06
-9.60781e-06
2.32923e-06
-9.70742e-06
1.70519e-06
-9.89046e-06
1.38474e-06
-1.00901e-05
1.14124e-06
-1.03889e-05
1.03083e-06
-1.07295e-05
9.97241e-07
-1.11131e-05
9.52449e-07
-1.15097e-05
8.63113e-07
-1.1835e-05
6.64719e-07
-1.20573e-05
3.55475e-07
-1.21559e-05
5.24181e-10
-1.21348e-05
-3.69694e-07
-1.19966e-05
-7.49962e-07
-1.17322e-05
-1.13288e-06
-1.13597e-05
-1.48124e-06
-1.09088e-05
-1.75506e-06
-1.03998e-05
-1.9642e-06
-9.84594e-06
-2.13086e-06
-9.26147e-06
-2.25137e-06
-8.66033e-06
-2.32334e-06
-8.05043e-06
-2.36203e-06
-7.43602e-06
-2.38052e-06
-6.81982e-06
-2.38408e-06
-6.20431e-06
-2.37144e-06
-5.59496e-06
-2.33812e-06
-4.998e-06
-2.28549e-06
-4.42049e-06
-2.21335e-06
-3.86892e-06
-2.12493e-06
-3.34768e-06
-2.02666e-06
-2.85909e-06
-1.92444e-06
-2.40335e-06
-1.82373e-06
-1.97917e-06
-1.72858e-06
-1.58441e-06
-1.6413e-06
-1.21647e-06
-1.56301e-06
-8.72715e-07
-1.49394e-06
-5.50228e-07
-1.43403e-06