/*--------------------------------*- C++ -*----------------------------------*\
  =========                 |
  \\      /  F ield         | OpenFOAM: The Open Source CFD Toolbox
   \\    /   O peration     | Website:  https://openfoam.org
    \\  /    A nd           | Version:  6
     \\/     M anipulation  |
\*---------------------------------------------------------------------------*/
FoamFile
{
    version     2.0;
    format      ascii;
    class       volVectorField;
    location    "0.4";
    object      UMean;
}
// * * * * * * * * * * * * * * * * * * * * * * * * * * * * * * * * * * * * * //

dimensions      [0 1 -1 0 0 0 0];

internalField   nonuniform List<vector> 
12225
(
(9.83063 0.0201334 0)
(9.5332 0.033749 0)
(9.23699 0.0366719 0)
(8.93682 0.0379217 0)
(8.63992 0.0391373 0)
(8.35244 0.0401255 0)
(8.07618 0.0406614 0)
(7.81076 0.0409672 0)
(7.55451 0.0410468 0)
(7.30684 0.0412895 0)
(7.06567 0.0414189 0)
(6.83146 0.042064 0)
(6.59995 0.042693 0)
(6.37343 0.0443189 0)
(6.14223 0.0466587 0)
(5.91336 0.0500968 0)
(5.66691 0.0579176 0)
(5.41782 0.0592797 0)
(10.0149 0.0407723 0)
(10.078 0.0689181 0)
(10.12 0.0741785 0)
(10.1359 0.076392 0)
(10.1334 0.0794517 0)
(10.1197 0.0825214 0)
(10.0978 0.0850387 0)
(10.0692 0.08707 0)
(10.0335 0.0890308 0)
(9.99202 0.0910095 0)
(9.94381 0.0934106 0)
(9.89096 0.0960245 0)
(9.83082 0.0997066 0)
(9.76659 0.103892 0)
(9.69294 0.110594 0)
(9.61429 0.118314 0)
(9.5236 0.130819 0)
(9.42053 0.143183 0)
(9.99746 0.0355297 0)
(10.0295 0.0629195 0)
(10.0601 0.066009 0)
(10.0795 0.0661234 0)
(10.0911 0.0684739 0)
(10.0997 0.0718246 0)
(10.1076 0.0749365 0)
(10.1147 0.0777804 0)
(10.1204 0.0806183 0)
(10.1241 0.0838185 0)
(10.1259 0.0874827 0)
(10.1251 0.0918867 0)
(10.1228 0.0973259 0)
(10.1173 0.104124 0)
(10.1112 0.113343 0)
(10.1012 0.124747 0)
(10.0933 0.140595 0)
(10.0808 0.156512 0)
(10.0088 0.028406 0)
(10.0321 0.055045 0)
(10.0565 0.0598312 0)
(10.0725 0.0606917 0)
(10.081 0.0636893 0)
(10.0864 0.0678965 0)
(10.0912 0.0719089 0)
(10.0958 0.0754922 0)
(10.0999 0.0790122 0)
(10.1029 0.0828127 0)
(10.1049 0.0871661 0)
(10.1058 0.092256 0)
(10.1058 0.098468 0)
(10.1051 0.106151 0)
(10.1041 0.116001 0)
(10.1037 0.128421 0)
(10.1046 0.143624 0)
(10.1096 0.16085 0)
(9.9998 0.0211053 0)
(10.018 0.0477262 0)
(10.0397 0.0556882 0)
(10.0557 0.0582445 0)
(10.0649 0.0618872 0)
(10.0707 0.0666239 0)
(10.0755 0.0711977 0)
(10.08 0.0752494 0)
(10.0839 0.0791156 0)
(10.0868 0.083193 0)
(10.0887 0.0878174 0)
(10.0897 0.0931939 0)
(10.0897 0.0996822 0)
(10.0894 0.107587 0)
(10.0888 0.117385 0)
(10.0893 0.129351 0)
(10.0907 0.143212 0)
(10.0958 0.158608 0)
(9.99797 0.0157232 0)
(10.0117 0.0415333 0)
(10.03 0.0520512 0)
(10.045 0.0560978 0)
(10.0544 0.0599574 0)
(10.0603 0.0646868 0)
(10.0649 0.0694239 0)
(10.0692 0.0737405 0)
(10.0731 0.0778555 0)
(10.0762 0.082188 0)
(10.0783 0.0870596 0)
(10.0797 0.092743 0)
(10.0804 0.0994619 0)
(10.0808 0.107553 0)
(10.0812 0.117161 0)
(10.0826 0.128549 0)
(10.0849 0.141111 0)
(10.0896 0.154513 0)
(9.99828 0.0131419 0)
(10.0083 0.0365959 0)
(10.0235 0.0483704 0)
(10.0374 0.053501 0)
(10.0468 0.0574571 0)
(10.0528 0.0620585 0)
(10.0573 0.0669088 0)
(10.0614 0.0715375 0)
(10.0652 0.076012 0)
(10.0684 0.0806891 0)
(10.0708 0.085887 0)
(10.0725 0.091879 0)
(10.0737 0.0988354 0)
(10.0748 0.10701 0)
(10.0759 0.116419 0)
(10.0779 0.127179 0)
(10.0807 0.138694 0)
(10.0853 0.150682 0)
(10.0013 0.0134028 0)
(10.009 0.034008 0)
(10.0216 0.0460788 0)
(10.034 0.0520028 0)
(10.0432 0.0561012 0)
(10.0493 0.0605342 0)
(10.0539 0.0653535 0)
(10.058 0.0701483 0)
(10.0619 0.0748582 0)
(10.0653 0.0797573 0)
(10.068 0.0851352 0)
(10.0701 0.0912621 0)
(10.0719 0.0982593 0)
(10.0736 0.106316 0)
(10.0755 0.115355 0)
(10.078 0.12543 0)
(10.0812 0.136009 0)
(10.0857 0.147 0)
(9.99982 0.00999883 0)
(10.006 0.0291363 0)
(10.0164 0.0416595 0)
(10.0276 0.0487372 0)
(10.0366 0.0535742 0)
(10.043 0.0583263 0)
(10.0478 0.0634147 0)
(10.0521 0.0685808 0)
(10.0561 0.0737042 0)
(10.0598 0.0789787 0)
(10.063 0.0846529 0)
(10.0657 0.0909882 0)
(10.0681 0.0980701 0)
(10.0705 0.106048 0)
(10.0731 0.114785 0)
(10.0764 0.124343 0)
(10.0801 0.134234 0)
(10.085 0.144549 0)
(10.0022 0.00468026 0)
(10.0067 0.0223912 0)
(10.0153 0.0348844 0)
(10.025 0.0427887 0)
(10.0334 0.048307 0)
(10.0398 0.0533409 0)
(10.0447 0.058561 0)
(10.049 0.0639087 0)
(10.0531 0.0692766 0)
(10.057 0.0747924 0)
(10.0606 0.0806589 0)
(10.0638 0.0871046 0)
(10.0669 0.0941935 0)
(10.0701 0.102028 0)
(10.0735 0.110459 0)
(10.0774 0.119536 0)
(10.0818 0.128852 0)
(10.0869 0.138547 0)
(10.0073 0.0096468 0)
(10.0105 0.0248039 0)
(10.0174 0.0363741 0)
(10.0259 0.0443556 0)
(10.0337 0.0500926 0)
(10.0401 0.0551097 0)
(10.0452 0.0601799 0)
(10.0498 0.06542 0)
(10.054 0.0707585 0)
(10.0582 0.0762645 0)
(10.0621 0.0820758 0)
(10.0659 0.088384 0)
(10.0696 0.0952314 0)
(10.0734 0.102708 0)
(10.0774 0.110655 0)
(10.082 0.119145 0)
(10.0868 0.127789 0)
(10.0927 0.136803 0)
(9.99499 0.00488447 0)
(9.99785 0.0183003 0)
(10.004 0.0292901 0)
(10.0117 0.0374645 0)
(10.0192 0.0436048 0)
(10.0256 0.0489027 0)
(10.031 0.0541309 0)
(10.0358 0.0595235 0)
(10.0403 0.0650529 0)
(10.0448 0.0707597 0)
(10.0492 0.0767205 0)
(10.0535 0.0831012 0)
(10.0576 0.0899097 0)
(10.062 0.0972507 0)
(10.0665 0.104935 0)
(10.0715 0.113089 0)
(10.0767 0.121286 0)
(10.0827 0.12986 0)
(10.0018 0.006888 0)
(10.004 0.0187201 0)
(10.0091 0.0289014 0)
(10.0158 0.0369123 0)
(10.0226 0.0431773 0)
(10.0287 0.048585 0)
(10.034 0.0538182 0)
(10.0388 0.0591635 0)
(10.0434 0.064648 0)
(10.048 0.0703089 0)
(10.0525 0.076191 0)
(10.057 0.0824241 0)
(10.0615 0.089006 0)
(10.0662 0.0960261 0)
(10.071 0.103313 0)
(10.0762 0.11098 0)
(10.0817 0.118653 0)
(10.0877 0.12664 0)
(9.99884 0.00433001 0)
(10.001 0.0148007 0)
(10.0056 0.0241469 0)
(10.0116 0.0318914 0)
(10.0178 0.0382223 0)
(10.0238 0.043744 0)
(10.0292 0.0490109 0)
(10.0343 0.0543342 0)
(10.0392 0.0597912 0)
(10.0441 0.0654289 0)
(10.049 0.0712545 0)
(10.0539 0.0773688 0)
(10.0589 0.083739 0)
(10.0641 0.0904682 0)
(10.0694 0.0973701 0)
(10.0751 0.104607 0)
(10.0809 0.111775 0)
(10.0874 0.119282 0)
(9.99683 0.00460816 0)
(9.99882 0.0140282 0)
(10.0028 0.0224101 0)
(10.0081 0.0295462 0)
(10.0139 0.0356116 0)
(10.0197 0.0410201 0)
(10.0252 0.0461708 0)
(10.0305 0.0513318 0)
(10.0358 0.056599 0)
(10.041 0.0620313 0)
(10.0463 0.0676246 0)
(10.0517 0.0734542 0)
(10.0572 0.0794711 0)
(10.0628 0.0857666 0)
(10.0686 0.092163 0)
(10.0746 0.0988222 0)
(10.0809 0.105369 0)
(10.0875 0.112206 0)
(10.0057 0.00178974 0)
(10.0073 0.0102739 0)
(10.0107 0.0177575 0)
(10.0154 0.0243237 0)
(10.0207 0.0301363 0)
(10.0263 0.0354498 0)
(10.0318 0.0405157 0)
(10.0373 0.0455433 0)
(10.0428 0.0506324 0)
(10.0484 0.0558534 0)
(10.0541 0.0611917 0)
(10.06 0.0667001 0)
(10.0659 0.07231 0)
(10.072 0.0781117 0)
(10.0783 0.0839319 0)
(10.0849 0.0899614 0)
(10.0915 0.0958292 0)
(10.0986 0.101986 0)
(9.99794 0.00101182 0)
(9.99888 0.00781814 0)
(10.0018 0.0138574 0)
(10.0061 0.0193118 0)
(10.0112 0.0243429 0)
(10.0168 0.0291088 0)
(10.0225 0.0337394 0)
(10.0284 0.0383545 0)
(10.0344 0.0430161 0)
(10.0405 0.0477865 0)
(10.0467 0.0526495 0)
(10.0532 0.0576494 0)
(10.0597 0.0627056 0)
(10.0665 0.0678982 0)
(10.0733 0.0730537 0)
(10.0804 0.0783616 0)
(10.0876 0.0834692 0)
(10.095 0.0888177 0)
(10.0006 0.00329561 0)
(10.0015 0.00773289 0)
(10.0042 0.0118764 0)
(10.0083 0.0158113 0)
(10.0133 0.0196298 0)
(10.0189 0.0234062 0)
(10.0248 0.0271889 0)
(10.0309 0.0310306 0)
(10.0372 0.0349455 0)
(10.0437 0.0389653 0)
(10.0503 0.0430592 0)
(10.0571 0.0472599 0)
(10.0641 0.0514899 0)
(10.0712 0.055823 0)
(10.0784 0.0601015 0)
(10.0858 0.0644977 0)
(10.0932 0.0686922 0)
(10.1009 0.0730823 0)
(9.99903 0.000916481 0)
(10.0001 0.00302134 0)
(10.003 0.00525343 0)
(10.0073 0.00764911 0)
(10.0125 0.0102345 0)
(10.0184 0.0130062 0)
(10.0246 0.0159262 0)
(10.0311 0.0189668 0)
(10.0378 0.0220924 0)
(10.0446 0.0253074 0)
(10.0516 0.0285788 0)
(10.0588 0.0319332 0)
(10.0661 0.035301 0)
(10.0736 0.0387414 0)
(10.0811 0.0421155 0)
(10.0887 0.0455691 0)
(10.0963 0.0488292 0)
(10.104 0.0522369 0)
(10.0072 -0.00105488 0)
(10.0083 -0.00109229 0)
(10.0115 -0.000668699 0)
(10.0164 0.000282188 0)
(10.0222 0.00171352 0)
(10.0286 0.00350159 0)
(10.0352 0.00551477 0)
(10.042 0.0076831 0)
(10.049 0.00996635 0)
(10.0562 0.0123623 0)
(10.0636 0.0148332 0)
(10.0711 0.0173828 0)
(10.0787 0.0199441 0)
(10.0864 0.0225545 0)
(10.0941 0.0251055 0)
(10.1019 0.0277082 0)
(10.1097 0.0301528 0)
(10.1175 0.0327009 0)
(10.0039 -0.00023275 0)
(10.0054 -0.0028792 0)
(10.0093 -0.00452449 0)
(10.0149 -0.00509048 0)
(10.0214 -0.00476908 0)
(10.0283 -0.00386884 0)
(10.0353 -0.00265735 0)
(10.0424 -0.0012655 0)
(10.0497 0.000262924 0)
(10.0572 0.00193394 0)
(10.0649 0.00371651 0)
(10.0727 0.00560157 0)
(10.0805 0.00751913 0)
(10.0884 0.00948757 0)
(10.0964 0.0114114 0)
(10.1043 0.0133804 0)
(10.1122 0.0152223 0)
(10.1201 0.0171547 0)
(10.0066 -0.000158048 0)
(10.0091 -0.00536368 0)
(10.0141 -0.00885622 0)
(10.0208 -0.0106241 0)
(10.0282 -0.0110828 0)
(10.0356 -0.0108124 0)
(10.0429 -0.0102358 0)
(10.0502 -0.00950614 0)
(10.0577 -0.00862864 0)
(10.0654 -0.007571 0)
(10.0732 -0.00635811 0)
(10.0811 -0.00501181 0)
(10.0891 -0.00360582 0)
(10.097 -0.00213914 0)
(10.1049 -0.000701565 0)
(10.1127 0.00076905 0)
(10.1206 0.00212615 0)
(10.1284 0.00354104 0)
(10.0007 -0.0033979 0)
(10.0043 -0.0104189 0)
(10.0109 -0.0152002 0)
(10.0191 -0.0175726 0)
(10.0275 -0.0183055 0)
(10.0355 -0.0183183 0)
(10.0431 -0.0181061 0)
(10.0507 -0.0177563 0)
(10.0584 -0.0172254 0)
(10.0664 -0.0164916 0)
(10.0745 -0.015605 0)
(10.0826 -0.0146083 0)
(10.0906 -0.0135672 0)
(10.0986 -0.0124804 0)
(10.1066 -0.0114129 0)
(10.1146 -0.0103187 0)
(10.1225 -0.00931119 0)
(10.1304 -0.00826723 0)
(10.0051 -0.00561639 0)
(10.0095 -0.0146117 0)
(10.0177 -0.0204886 0)
(10.0275 -0.0231483 0)
(10.0367 -0.0240041 0)
(10.0449 -0.0243166 0)
(10.0526 -0.0245309 0)
(10.0603 -0.0245992 0)
(10.0682 -0.0244292 0)
(10.0763 -0.024024 0)
(10.0845 -0.0234638 0)
(10.0926 -0.0228075 0)
(10.1007 -0.0221143 0)
(10.1087 -0.0213836 0)
(10.1167 -0.0206664 0)
(10.1247 -0.0199256 0)
(10.1326 -0.0192508 0)
(10.1405 -0.018543 0)
(9.99896 -0.00784365 0)
(10.0049 -0.0193667 0)
(10.0152 -0.0256904 0)
(10.0266 -0.0280483 0)
(10.0366 -0.0289345 0)
(10.0449 -0.0296697 0)
(10.0527 -0.0303639 0)
(10.0606 -0.0307864 0)
(10.0688 -0.0308606 0)
(10.0771 -0.0306668 0)
(10.0854 -0.0303287 0)
(10.0937 -0.0299141 0)
(10.1019 -0.0294711 0)
(10.11 -0.0289964 0)
(10.1181 -0.0285338 0)
(10.1262 -0.0280568 0)
(10.1342 -0.0276404 0)
(10.1421 -0.0272013 0)
(10.0012 -0.0112911 0)
(10.0096 -0.0258276 0)
(10.0228 -0.0316243 0)
(10.0358 -0.032982 0)
(10.0461 -0.0336935 0)
(10.0545 -0.0347815 0)
(10.0623 -0.0358776 0)
(10.0705 -0.0366049 0)
(10.0788 -0.0369355 0)
(10.0873 -0.0370098 0)
(10.0956 -0.0369552 0)
(10.1038 -0.0368257 0)
(10.112 -0.0366424 0)
(10.1201 -0.0364058 0)
(10.1281 -0.036144 0)
(10.1361 -0.0358606 0)
(10.1441 -0.0356019 0)
(10.1519 -0.0353431 0)
(10.0007 -0.0148129 0)
(10.0132 -0.0328119 0)
(10.0296 -0.0372829 0)
(10.0435 -0.0372652 0)
(10.0535 -0.0376192 0)
(10.0617 -0.0388208 0)
(10.0696 -0.040079 0)
(10.078 -0.0409553 0)
(10.0867 -0.0414757 0)
(10.0954 -0.0418077 0)
(10.1039 -0.0420692 0)
(10.1123 -0.0422927 0)
(10.1207 -0.042487 0)
(10.1289 -0.0426373 0)
(10.1372 -0.0427724 0)
(10.1453 -0.0428772 0)
(10.1534 -0.0430201 0)
(10.1614 -0.0431278 0)
(9.99987 -0.0184263 0)
(10.0197 -0.0393713 0)
(10.0412 -0.0426562 0)
(10.057 -0.0416925 0)
(10.0681 -0.0415424 0)
(10.0775 -0.0422323 0)
(10.0871 -0.0429045 0)
(10.0971 -0.0432443 0)
(10.1073 -0.0433396 0)
(10.1173 -0.0433648 0)
(10.1272 -0.0433882 0)
(10.1368 -0.0434426 0)
(10.1463 -0.0434877 0)
(10.1555 -0.0435533 0)
(10.1647 -0.0435906 0)
(10.1735 -0.0436778 0)
(10.1823 -0.0437485 0)
(10.1907 -0.0439572 0)
(10.0191 -0.0291925 0)
(10.0623 -0.0514047 0)
(10.0977 -0.0560818 0)
(10.12 -0.0570632 0)
(10.1333 -0.0582983 0)
(10.142 -0.059713 0)
(10.1484 -0.0607688 0)
(10.153 -0.0613719 0)
(10.1558 -0.0616681 0)
(10.1568 -0.0618299 0)
(10.1562 -0.061916 0)
(10.1542 -0.061976 0)
(10.1511 -0.0619755 0)
(10.1472 -0.0619684 0)
(10.1423 -0.0618992 0)
(10.1371 -0.0618591 0)
(10.1309 -0.0617754 0)
(10.1249 -0.0617873 0)
(9.90497 -0.0104797 0)
(9.74121 -0.0216134 0)
(9.57876 -0.0246296 0)
(9.41282 -0.0259487 0)
(9.24794 -0.0271557 0)
(9.08861 -0.0282387 0)
(8.93663 -0.0290371 0)
(8.79201 -0.0295488 0)
(8.65408 -0.0298524 0)
(8.5224 -0.0300216 0)
(8.39653 -0.0301012 0)
(8.2765 -0.0301147 0)
(8.16178 -0.0300834 0)
(8.05268 -0.03001 0)
(7.94811 -0.0299265 0)
(7.84912 -0.0297971 0)
(7.75348 -0.0297109 0)
(7.66401 -0.0295041 0)
(-0.0992648 0.0268455 -2.81188e-22)
(-0.196644 -0.0498213 2.85002e-22)
(-0.242214 -0.111019 0)
(-0.239774 -0.17581 0)
(-0.153607 -0.240248 0)
(-0.00535789 -0.285302 -2.8779e-22)
(0.179474 -0.306945 0)
(0.382977 -0.310153 0)
(0.594148 -0.299493 0)
(0.803008 -0.27737 0)
(0.999148 -0.247686 3.72378e-22)
(1.1756 -0.215942 0)
(1.32906 -0.184792 0)
(1.45584 -0.153066 0)
(1.55366 -0.120069 0)
(1.62287 -0.0877541 5.89272e-22)
(1.66511 -0.0585435 0)
(1.68234 -0.0327551 0)
(1.67688 -0.00924358 0)
(1.65042 0.0129143 0)
(1.60444 0.0342002 0)
(1.53356 0.0566678 0)
(1.44054 0.0736636 0)
(1.32908 0.0827558 6.21799e-22)
(1.20188 0.0890807 -6.07376e-22)
(1.06 0.0862886 5.93304e-22)
(0.907192 0.0741875 5.81432e-22)
(0.748983 0.0614883 0)
(0.588191 0.0493648 0)
(0.429821 0.0536062 -5.69322e-22)
(0.259193 0.0786076 -5.74422e-22)
(0.0894933 0.0795687 0)
(-0.080953 0.06258 0)
(-0.241676 0.0503545 -6.21486e-22)
(-0.395317 0.0447238 0)
(-0.548291 0.0582162 0)
(-0.707012 0.0621809 6.95444e-22)
(-0.857251 0.05315 0)
(-1.00344 0.0439664 7.54229e-22)
(-1.14968 0.0501882 1.57393e-21)
(-1.30096 0.0632439 0)
(-1.45108 0.0646378 0)
(-1.59045 0.0461558 0)
(-1.70947 0.0266063 0)
(-1.81481 0.0215937 0)
(-1.89966 0.0141148 1.98484e-21)
(-1.98739 0.00337577 2.03735e-21)
(-2.05796 -0.0062203 2.08285e-21)
(-2.12703 -0.00500212 0)
(-2.21652 0.0107342 -2.14409e-21)
(-2.30989 0.0125292 0)
(-2.38585 0.00530103 2.18134e-21)
(-2.45556 -0.00288068 2.19123e-21)
(-2.51557 0.00115267 0)
(-2.59465 0.0027374 0)
(-2.67597 0.00899578 0)
(-2.76823 0.00965421 2.16939e-21)
(-2.85215 0.000167015 0)
(-2.91969 -0.00751135 0)
(-2.98602 -0.0146725 0)
(-3.05003 -0.00452348 0)
(-3.11747 0.00204712 0)
(-3.19015 0.000110852 0)
(-3.25161 -0.00521125 0)
(-3.30567 -0.00638924 0)
(-3.36423 -0.00463873 -2.16244e-21)
(-3.41491 -0.00666985 0)
(-3.45669 -0.0106844 0)
(-3.48879 -0.0173525 2.18947e-21)
(-3.51943 -0.020765 2.19062e-21)
(-3.54516 -0.0271608 0)
(-3.56456 -0.0214239 -2.17466e-21)
(-3.60392 -0.00734562 2.15882e-21)
(-3.64777 -0.00102966 0)
(-3.69675 0.000169641 -2.1284e-21)
(-3.75003 -0.00143676 0)
(-3.80055 -0.000863472 0)
(-3.86893 0.0101585 2.07644e-21)
(-3.94904 0.0158488 0)
(-4.03525 0.00987308 -2.02835e-21)
(-4.09704 0.00612657 0)
(-4.1632 -0.00245467 1.95794e-21)
(-4.20581 -0.00257685 1.91336e-21)
(-4.26958 0.00294415 1.86374e-21)
(-4.28785 -0.0153537 3.62222e-21)
(-4.28427 -0.0207913 -3.50809e-21)
(-4.27341 -0.0175072 0)
(-4.2677 -0.0132418 0)
(-4.26564 -0.0152433 0)
(-4.24182 -0.0203895 -2.98135e-21)
(-4.23255 -0.00956411 -2.843e-21)
(-4.24068 -0.008253 2.70946e-21)
(-4.22148 -0.01302 0)
(-4.22054 -0.0111228 -2.48006e-21)
(-4.21059 -0.0228955 -2.39156e-21)
(-4.16308 -0.0368708 -2.31667e-21)
(-4.09229 -0.0465199 0)
(-4.00858 -0.0490063 0)
(-3.92398 -0.0495128 0)
(-3.84793 -0.0433404 -1.8465e-21)
(-3.77024 -0.0449577 0)
(-3.69533 -0.0369402 0)
(-3.66529 -0.0292782 1.12942e-21)
(-3.62696 -0.028852 0)
(-3.58047 -0.0362543 0)
(-3.5121 -0.0259525 3.80398e-22)
(-3.53071 -0.0112347 0)
(-3.53851 -0.0210936 0)
(-3.51263 -0.0283084 1.10673e-22)
(-3.47758 -0.0325068 2.14164e-22)
(-3.41961 -0.0384521 0)
(-3.3435 -0.0426665 -4.1637e-22)
(-3.25086 -0.0467164 0)
(-3.13902 -0.0518588 6.67547e-22)
(-3.01227 -0.0550713 0)
(-2.87303 -0.0586803 9.83411e-22)
(-2.71759 -0.0627908 1.1641e-21)
(-2.54997 -0.0660109 0)
(-2.37297 -0.0680797 0)
(-2.1892 -0.0703465 0)
(-2.00649 -0.0681264 0)
(-1.81308 -0.0723387 0)
(-1.61677 -0.0618768 0)
(-1.47744 -0.045608 0)
(-1.33962 -0.0438666 2.75272e-21)
(-1.19597 -0.04177 -2.88914e-21)
(-1.05629 -0.0429226 0)
(-0.912416 -0.0484015 0)
(-0.760601 -0.0504995 0)
(-0.600418 -0.0476617 0)
(-0.44919 -0.04525 -6.65625e-21)
(-0.315762 -0.0440784 0)
(-0.166266 -0.0438829 6.95164e-21)
(-0.0768994 -0.0243741 -7.06258e-21)
(-0.052371 -0.011828 0)
(-0.0154632 -0.0151787 0)
(0.035722 -0.0103912 0)
(0.0386065 -0.00478596 6.80201e-21)
(0.0705502 -0.0122486 6.64468e-21)
(0.139023 -0.0170651 0)
(0.216951 -0.0174242 6.4017e-21)
(0.299072 -0.0192901 6.34646e-21)
(0.400287 -0.0255696 -6.33549e-21)
(0.505036 -0.0277923 0)
(0.594271 -0.0262252 0)
(0.68159 -0.026589 -6.45747e-21)
(0.776073 -0.0276658 0)
(0.877069 -0.0276153 0)
(0.978243 -0.026983 0)
(1.0799 -0.0268945 0)
(1.18034 -0.0261069 7.06108e-21)
(1.28204 -0.0252824 7.22175e-21)
(1.38061 -0.02289 0)
(1.48359 -0.0240201 7.51809e-21)
(1.58484 -0.0243317 0)
(1.66103 -0.0196619 0)
(1.71586 -0.016653 7.70707e-21)
(1.77347 -0.0158814 0)
(1.8382 -0.0140247 7.58721e-21)
(1.90093 -0.0103248 0)
(1.95454 -0.00580315 0)
(1.99271 -0.00134511 7.28467e-21)
(2.01213 0.00151767 0)
(2.02279 0.00172672 7.05688e-21)
(2.03959 0.000636069 0)
(2.05918 -0.000517423 0)
(2.07875 -0.00282052 0)
(2.10021 -0.00598971 -6.77605e-21)
(2.12533 -0.00723836 0)
(2.14785 -0.00621621 6.7342e-21)
(2.16221 -0.00370788 0)
(2.16112 -0.00105116 0)
(2.15162 0.00180494 0)
(2.1302 0.00328116 0)
(2.11373 0.00740939 0)
(2.06785 0.0108118 0)
(2.02625 0.0187027 0)
(1.91639 0.0172697 -1.26329e-20)
(1.88582 0.0228324 0)
(1.70431 0.0109448 0)
(-0.0349199 0.304511 8.94077e-22)
(-0.0478658 0.191795 -9.05903e-22)
(-0.0177408 0.0507535 0)
(0.110451 -0.139149 6.58273e-22)
(0.297167 -0.342778 0)
(0.5052 -0.51556 2.86344e-22)
(0.714841 -0.629799 -7.26782e-22)
(0.920833 -0.686516 -7.69465e-22)
(1.11675 -0.692562 0)
(1.29675 -0.66028 -9.03294e-22)
(1.4564 -0.601152 -3.7098e-22)
(1.59159 -0.524068 0)
(1.70117 -0.437332 0)
(1.78191 -0.345864 0)
(1.83323 -0.257543 0)
(1.86366 -0.176211 -5.87608e-22)
(1.87681 -0.1013 0)
(1.87026 -0.0318417 1.45305e-21)
(1.84321 0.0326456 0)
(1.79718 0.0929392 0)
(1.73268 0.148917 -1.4635e-21)
(1.64478 0.210396 0)
(1.53328 0.270732 1.42206e-21)
(1.40768 0.322423 -6.19258e-22)
(1.27402 0.358035 6.04624e-22)
(1.12328 0.384038 -5.90346e-22)
(0.949285 0.415059 -5.78254e-22)
(0.761638 0.436708 0)
(0.561662 0.444632 0)
(0.358279 0.445198 5.65879e-22)
(0.151043 0.430501 -7.36015e-22)
(-0.0427405 0.393231 0)
(-0.233027 0.383872 0)
(-0.429013 0.382543 6.18447e-22)
(-0.616073 0.362758 0)
(-0.79565 0.341524 0)
(-0.970814 0.320803 -6.92433e-22)
(-1.12737 0.30301 0)
(-1.28849 0.302718 9.48915e-22)
(-1.44335 0.303683 -1.56815e-21)
(-1.58901 0.300055 0)
(-1.72503 0.280084 0)
(-1.86039 0.260599 -3.94948e-21)
(-1.98651 0.240853 -4.08219e-21)
(-2.09351 0.194044 -4.20826e-21)
(-2.20554 0.153082 2.34543e-21)
(-2.31359 0.151913 -2.03234e-21)
(-2.42085 0.164032 -6.60175e-21)
(-2.50955 0.159565 4.59855e-21)
(-2.59061 0.152897 2.13938e-21)
(-2.66654 0.138979 0)
(-2.74676 0.133957 -2.17685e-21)
(-2.84973 0.131978 2.54883e-21)
(-2.94283 0.129621 0)
(-3.05243 0.146955 0)
(-3.17067 0.152924 0)
(-3.28387 0.151624 -2.16444e-21)
(-3.39737 0.15519 0)
(-3.49343 0.137038 4.63289e-21)
(-3.5847 0.107952 0)
(-3.68265 0.108837 4.60195e-21)
(-3.74666 0.104084 0)
(-3.80296 0.100656 -4.60856e-21)
(-3.85099 0.0885689 0)
(-3.88976 0.0697982 4.63982e-21)
(-3.92124 0.0500865 -2.49919e-21)
(-3.93977 0.0321367 0)
(-3.95288 0.0184451 -4.68218e-21)
(-3.96305 0.0105332 -2.18638e-21)
(-3.9849 0.0138761 -2.18763e-21)
(-4.01886 0.0259879 0)
(-4.05605 0.0385789 -2.44733e-21)
(-4.10235 0.0463325 -2.15625e-21)
(-4.15064 0.0508685 0)
(-4.21136 0.0638635 2.12574e-21)
(-4.26883 0.0777155 -4.50504e-21)
(-4.32079 0.0838447 0)
(-4.38983 0.0954468 -2.07378e-21)
(-4.44528 0.095963 0)
(-4.48983 0.0875371 6.34928e-21)
(-4.52025 0.0737458 0)
(-4.57845 0.0781476 -6.11481e-21)
(-4.60564 0.0647191 -1.91105e-21)
(-4.62383 0.0344452 2.08902e-21)
(-4.61268 -0.00908079 4.05801e-21)
(-4.60403 -0.0275555 -3.93527e-21)
(-4.58025 -0.0408268 0)
(-4.55908 -0.0453796 0)
(-4.56094 -0.0253211 0)
(-4.56742 -0.0136089 9.35205e-21)
(-4.54906 -0.0234726 2.8401e-21)
(-4.53522 -0.0299453 -2.70663e-21)
(-4.51538 -0.0368562 0)
(-4.48775 -0.0607513 -2.95398e-21)
(-4.43257 -0.0975201 2.38947e-21)
(-4.34945 -0.13134 2.3146e-21)
(-4.25136 -0.155132 0)
(-4.14408 -0.163357 0)
(-4.03958 -0.158867 0)
(-3.93089 -0.149897 1.84577e-21)
(-3.84972 -0.118808 0)
(-3.78608 -0.0886827 -3.16955e-21)
(-3.74924 -0.0759759 -3.77252e-21)
(-3.69921 -0.0770944 2.12067e-21)
(-3.69477 -0.0532074 0)
(-3.69866 -0.0281355 7.9505e-22)
(-3.71669 -0.0286681 0)
(-3.68939 -0.0517545 4.88205e-22)
(-3.63337 -0.0763457 -3.43212e-22)
(-3.56384 -0.0976196 -2.15546e-22)
(-3.47179 -0.120239 0)
(-3.35264 -0.145242 8.7999e-22)
(-3.21414 -0.166139 -7.26099e-22)
(-3.06226 -0.182642 -6.66873e-22)
(-2.90014 -0.196391 0)
(-2.72634 -0.209164 -9.8241e-22)
(-2.54149 -0.219761 -3.23967e-21)
(-2.35048 -0.22749 0)
(-2.15527 -0.231505 -2.91641e-21)
(-1.95989 -0.231045 -3.35687e-21)
(-1.76262 -0.230458 -3.79506e-21)
(-1.59619 -0.215546 0)
(-1.42872 -0.195318 0)
(-1.2587 -0.186315 0)
(-1.08333 -0.182252 2.55115e-21)
(-0.910166 -0.178 2.88664e-21)
(-0.737506 -0.182141 0)
(-0.566136 -0.188794 6.0224e-21)
(-0.402382 -0.185455 6.19102e-21)
(-0.233607 -0.175977 0)
(-0.0680978 -0.163768 6.65106e-21)
(0.0724016 -0.147968 1.32945e-20)
(0.152032 -0.110855 -6.94491e-21)
(0.188053 -0.0762712 -6.63614e-21)
(0.247241 -0.0702097 0)
(0.306165 -0.0627316 0)
(0.363467 -0.0565583 0)
(0.429686 -0.0640722 -6.79697e-21)
(0.52605 -0.0793451 6.20577e-21)
(0.629496 -0.0899138 1.26065e-20)
(0.735483 -0.0975517 -6.39515e-21)
(0.83853 -0.102743 6.01899e-21)
(0.948162 -0.10947 6.32859e-21)
(1.0557 -0.110932 0)
(1.1603 -0.109582 0)
(1.27496 -0.111446 -6.15283e-21)
(1.3958 -0.113642 0)
(1.52076 -0.114124 0)
(1.64483 -0.112741 1.32338e-20)
(1.77058 -0.111495 0)
(1.89489 -0.109712 6.81468e-21)
(2.01919 -0.106259 -7.21423e-21)
(2.13769 -0.100723 0)
(2.25186 -0.096954 7.30122e-21)
(2.34701 -0.0887089 0)
(2.42602 -0.0784823 0)
(2.50318 -0.0753417 -7.69967e-21)
(2.58713 -0.0764584 1.50787e-20)
(2.66971 -0.0745958 -7.57979e-21)
(2.7446 -0.0666281 0)
(2.80753 -0.0542133 0)
(2.85496 -0.0404305 7.08762e-21)
(2.88852 -0.030153 0)
(2.91741 -0.0267261 6.8646e-21)
(2.94774 -0.0278614 0)
(2.97292 -0.029659 0)
(3.00024 -0.0301047 0)
(3.02912 -0.0304335 6.76951e-21)
(3.05402 -0.0298527 0)
(3.071 -0.0270795 -6.7278e-21)
(3.07613 -0.0214488 0)
(3.06875 -0.0149166 0)
(3.06189 -0.00841545 1.30915e-20)
(3.04575 -0.00416707 -1.29604e-20)
(3.0307 0.00404881 0)
(2.9868 0.0145537 0)
(2.94661 0.0314697 0)
(2.86068 0.0361025 3.74741e-20)
(2.84935 0.0449072 0)
(2.72729 0.0383671 -2.45813e-20)
(0.0244247 0.307875 3.2521e-23)
(0.0974159 0.163962 1.2729e-21)
(0.242604 -0.134722 0)
(0.455703 -0.474283 -1.38397e-21)
(0.694456 -0.775143 0)
(0.918964 -0.984743 0)
(1.10887 -1.08378 -2.11314e-22)
(1.26929 -1.09433 7.67008e-22)
(1.39958 -1.03853 1.10923e-21)
(1.50308 -0.938749 9.01441e-22)
(1.57894 -0.813755 0)
(1.62992 -0.674931 0)
(1.66037 -0.532282 -1.46289e-21)
(1.67473 -0.394654 -3.06721e-21)
(1.67311 -0.266769 3.18524e-21)
(1.65749 -0.151015 0)
(1.63191 -0.0472643 3.3444e-21)
(1.59183 0.0480931 -1.45272e-21)
(1.53835 0.136539 0)
(1.46895 0.22545 3.39816e-21)
(1.37845 0.321934 1.46256e-21)
(1.27518 0.416051 -3.33594e-21)
(1.16105 0.498774 -1.42021e-21)
(1.0401 0.558305 0)
(0.899366 0.618141 3.1684e-21)
(0.743864 0.681379 3.11336e-21)
(0.583055 0.730941 0)
(0.416452 0.766611 3.03482e-21)
(0.243299 0.787089 0)
(0.0680515 0.792044 3.0264e-21)
(-0.113368 0.789264 1.30239e-21)
(-0.309782 0.783738 0)
(-0.502982 0.763734 0)
(-0.696129 0.739047 0)
(-0.875005 0.705877 0)
(-1.04092 0.66974 0)
(-1.2114 0.644332 0)
(-1.36946 0.613577 3.74786e-21)
(-1.51748 0.578448 -5.57946e-21)
(-1.65705 0.553186 0)
(-1.7864 0.532781 0)
(-1.91216 0.508533 0)
(-2.03709 0.47975 -4.90563e-22)
(-2.15513 0.436468 4.07838e-21)
(-2.27954 0.39299 8.90058e-21)
(-2.41385 0.37048 -9.14206e-21)
(-2.53787 0.351342 -4.93371e-21)
(-2.63853 0.318772 4.52156e-21)
(-2.7357 0.291995 5.12264e-22)
(-2.82471 0.280119 5.16743e-21)
(-2.92514 0.28393 0)
(-3.02542 0.290546 5.22967e-21)
(-3.1427 0.305567 5.02346e-22)
(-3.26769 0.328131 0)
(-3.39518 0.356161 0)
(-3.52228 0.358393 -5.19482e-21)
(-3.63404 0.341626 0)
(-3.74246 0.313457 0)
(-3.83345 0.276699 5.56421e-21)
(-3.91463 0.239259 1.01422e-20)
(-3.98118 0.213195 -4.60012e-21)
(-4.02608 0.188426 0)
(-4.05575 0.159509 4.60852e-21)
(-4.07258 0.1279 0)
(-4.08595 0.102271 5.54268e-21)
(-4.09853 0.08323 4.65946e-21)
(-4.11269 0.0657411 -1.022e-20)
(-4.12964 0.0530085 -5.52546e-21)
(-4.15573 0.0575164 0)
(-4.19285 0.0708233 1.01289e-20)
(-4.23282 0.0831642 0)
(-4.27815 0.0958002 1.4628e-20)
(-4.3313 0.110246 9.9477e-21)
(-4.37848 0.119674 9.89239e-21)
(-4.42842 0.1317 -9.83735e-21)
(-4.47054 0.143875 1.42817e-20)
(-4.51247 0.152999 0)
(-4.55535 0.160967 0)
(-4.57433 0.149851 -9.5054e-21)
(-4.57918 0.125687 -1.36895e-20)
(-4.59063 0.109781 0)
(-4.59935 0.0946293 4.16104e-21)
(-4.58562 0.0667584 0)
(-4.56433 0.0217116 -1.24888e-20)
(-4.55014 -0.0155519 6.12166e-22)
(-4.53236 -0.0349771 -6.02027e-22)
(-4.50944 -0.0451489 7.7914e-21)
(-4.50197 -0.0356321 0)
(-4.48248 -0.0292626 -7.24997e-21)
(-4.45694 -0.0363907 6.03231e-22)
(-4.4295 -0.0415219 0)
(-4.40787 -0.0468241 0)
(-4.37288 -0.0678632 0)
(-4.32064 -0.109972 5.436e-21)
(-4.24689 -0.162115 0)
(-4.15846 -0.207636 0)
(-4.05935 -0.2369 0)
(-3.96401 -0.241492 0)
(-3.86865 -0.232937 0)
(-3.78294 -0.209001 4.66131e-21)
(-3.72229 -0.160764 0)
(-3.66166 -0.125996 3.17399e-21)
(-3.61473 -0.10973 2.64744e-21)
(-3.58499 -0.0861899 -2.1257e-21)
(-3.58883 -0.0438149 0)
(-3.58508 -0.0240494 -1.17996e-21)
(-3.56214 -0.04486 0)
(-3.50083 -0.086619 -4.89484e-22)
(-3.42816 -0.122576 2.33258e-22)
(-3.33001 -0.162937 1.16342e-21)
(-3.21051 -0.206898 0)
(-3.06932 -0.24803 -3.71652e-22)
(-2.91348 -0.281441 2.22347e-22)
(-2.74618 -0.308382 0)
(-2.57027 -0.330622 -1.84378e-21)
(-2.3856 -0.348962 -2.60454e-21)
(-2.19649 -0.36267 5.49624e-21)
(-2.00577 -0.371442 0)
(-1.81409 -0.375181 2.91118e-21)
(-1.62561 -0.373338 3.35167e-21)
(-1.45411 -0.360073 1.07953e-20)
(-1.28954 -0.339436 0)
(-1.10833 -0.324127 0)
(-0.921045 -0.314628 0)
(-0.73659 -0.305268 4.71254e-21)
(-0.558481 -0.29656 0)
(-0.384158 -0.299533 0)
(-0.218923 -0.302861 -6.01778e-21)
(-0.0676027 -0.292931 -6.18676e-21)
(0.0860926 -0.273537 0)
(0.227691 -0.244266 0)
(0.312416 -0.193815 -1.32856e-20)
(0.353364 -0.137689 0)
(0.404465 -0.10859 1.36847e-20)
(0.487128 -0.100887 1.30015e-20)
(0.559773 -0.0933644 0)
(0.639646 -0.0964622 0)
(0.738487 -0.113547 -1.24426e-20)
(0.85117 -0.132647 -6.25811e-22)
(0.956642 -0.14448 -5.7654e-22)
(1.06491 -0.15251 0)
(1.17067 -0.157729 -2.41961e-20)
(1.27876 -0.163484 0)
(1.38155 -0.164301 0)
(1.49159 -0.164666 0)
(1.6134 -0.168689 1.25944e-20)
(1.73786 -0.172161 0)
(1.8644 -0.173724 -2.50959e-20)
(1.99147 -0.173574 -1.32251e-20)
(2.12249 -0.173158 0)
(2.25382 -0.170647 -1.38593e-20)
(2.38445 -0.164213 0)
(2.5085 -0.153868 0)
(2.62226 -0.142283 -4.37436e-20)
(2.71651 -0.125944 2.93646e-20)
(2.80709 -0.111928 0)
(2.90389 -0.107531 2.95881e-20)
(3.00331 -0.106265 -1.50686e-20)
(3.09381 -0.100327 0)
(3.17049 -0.0879917 0)
(3.23127 -0.0715722 0)
(3.2771 -0.0548215 -4.24823e-20)
(3.31718 -0.0420581 0)
(3.35901 -0.0365767 -1.39051e-20)
(3.40128 -0.0354141 0)
(3.43859 -0.0345522 0)
(3.47149 -0.0334949 0)
(3.49907 -0.032015 0)
(3.52113 -0.0266355 0)
(3.53559 -0.0170702 0)
(3.5389 -0.00553604 -2.60603e-20)
(3.5305 0.00437607 0)
(3.51966 0.0125476 -1.30843e-20)
(3.49942 0.0197677 3.83875e-20)
(3.47427 0.032407 0)
(3.42543 0.050554 0)
(3.37463 0.0690368 -2.45298e-20)
(3.29986 0.0775704 -2.48402e-20)
(3.27424 0.0851286 2.40871e-20)
(3.18915 0.0972071 2.45671e-20)
(0.0406523 0.0895867 -2.00263e-21)
(0.213474 -0.237566 -2.04702e-21)
(0.461295 -0.691767 -1.50348e-21)
(0.714907 -1.0555 -9.4765e-22)
(0.937973 -1.29057 0)
(1.10776 -1.38896 2.10895e-21)
(1.21735 -1.36199 -1.40432e-21)
(1.28878 -1.26453 0)
(1.33428 -1.12374 -1.10905e-21)
(1.35819 -0.959547 0)
(1.36955 -0.789008 3.18155e-21)
(1.37102 -0.621327 0)
(1.36314 -0.459746 1.46391e-21)
(1.34491 -0.30748 3.06948e-21)
(1.31473 -0.166908 -3.1877e-21)
(1.27505 -0.0409248 0)
(1.22686 0.0700475 -3.34712e-21)
(1.16599 0.180002 0)
(1.09183 0.293671 0)
(1.00199 0.411708 -3.39989e-21)
(0.900929 0.527091 0)
(0.792469 0.628637 -5.20047e-22)
(0.676665 0.715828 0)
(0.5487 0.800412 0)
(0.410452 0.883861 5.37772e-22)
(0.269937 0.949874 -3.10996e-21)
(0.125705 0.997775 -3.6123e-21)
(-0.0207305 1.0312 -3.03046e-21)
(-0.169692 1.05096 0)
(-0.328866 1.06582 -6.59443e-21)
(-0.497674 1.08361 0)
(-0.667976 1.08502 -3.64792e-21)
(-0.837757 1.06837 0)
(-1.00798 1.04073 0)
(-1.17029 0.996959 3.90173e-21)
(-1.33426 0.959246 0)
(-1.49005 0.916089 -4.13662e-21)
(-1.63332 0.863429 5.25295e-22)
(-1.7761 0.823968 8.28735e-21)
(-1.91485 0.795382 -9.10534e-21)
(-2.04783 0.772431 0)
(-2.17056 0.736661 0)
(-2.28696 0.690685 -5.53831e-21)
(-2.40256 0.641829 0)
(-2.53311 0.612576 -4.69328e-21)
(-2.65173 0.571513 4.81857e-21)
(-2.7549 0.521075 4.93281e-21)
(-2.84886 0.472825 0)
(-2.94682 0.451639 -5.10899e-21)
(-3.04415 0.443058 -5.16746e-21)
(-3.1675 0.460807 1.16123e-20)
(-3.29956 0.487945 -5.22935e-21)
(-3.42287 0.492242 -5.23705e-21)
(-3.54088 0.496408 0)
(-3.64974 0.507952 0)
(-3.74084 0.499486 5.19503e-21)
(-3.8253 0.478048 0)
(-3.90643 0.4413 0)
(-3.97247 0.385352 -1.01956e-20)
(-4.02828 0.324596 -1.01443e-20)
(-4.07189 0.274982 0)
(-4.10161 0.23183 0)
(-4.12389 0.192424 0)
(-4.1442 0.161285 0)
(-4.16477 0.138796 -1.01885e-20)
(-4.18705 0.124074 1.11885e-20)
(-4.21161 0.109757 1.0224e-20)
(-4.24132 0.10431 2.13512e-20)
(-4.27754 0.113805 0)
(-4.31988 0.129389 8.91236e-22)
(-4.3633 0.145295 0)
(-4.40292 0.158854 -1.00114e-20)
(-4.43649 0.167187 8.7072e-22)
(-4.46184 0.168941 -9.89743e-21)
(-4.48944 0.175503 9.84298e-21)
(-4.50382 0.17957 8.47436e-22)
(-4.51466 0.178478 0)