/*--------------------------------*- C++ -*----------------------------------*\
  =========                 |
  \\      /  F ield         | OpenFOAM: The Open Source CFD Toolbox
   \\    /   O peration     | Website:  https://openfoam.org
    \\  /    A nd           | Version:  6
     \\/     M anipulation  |
\*---------------------------------------------------------------------------*/
FoamFile
{
    version     2.0;
    format      ascii;
    class       volScalarField;
    location    "0.05";
    object      k;
}
// * * * * * * * * * * * * * * * * * * * * * * * * * * * * * * * * * * * * * //

dimensions      [0 2 -2 0 0 0 0];

internalField   nonuniform List<scalar> 
12225
(
0.000438399
0.000695798
0.000534372
0.000278588
0.000171367
0.00015424
0.000174077
0.000228032
0.000241301
0.00023194
0.000173349
0.000108035
7.77839e-05
6.56435e-05
6.02967e-05
5.76161e-05
5.73509e-05
0.000317483
2.74369e-05
5.06487e-05
5.96928e-05
5.68039e-05
4.80263e-05
4.54428e-05
4.77831e-05
6.45325e-05
8.85895e-05
9.60137e-05
9.5091e-05
8.70552e-05
6.693e-05
5.3146e-05
4.6003e-05
4.33839e-05
4.29727e-05
5.10388e-05
2.01733e-05
1.77849e-05
1.77957e-05
1.81971e-05
1.8421e-05
1.85527e-05
1.89177e-05
2.03077e-05
2.37761e-05
2.60672e-05
2.66841e-05
2.65267e-05
2.48662e-05
2.2697e-05
2.17553e-05
2.15837e-05
2.16818e-05
2.23558e-05
2.11133e-05
2.143e-05
2.1223e-05
2.05972e-05
2.02986e-05
2.00523e-05
1.97563e-05
1.94579e-05
1.90473e-05
1.81171e-05
1.43423e-05
1.29746e-05
1.43889e-05
1.69633e-05
1.82463e-05
1.87739e-05
1.895e-05
1.89446e-05
2.16666e-05
2.27313e-05
2.33704e-05
2.75637e-05
4.41091e-05
4.54001e-05
3.60719e-05
2.73185e-05
2.43434e-05
2.337e-05
2.30196e-05
2.30045e-05
2.32551e-05
2.39225e-05
2.43209e-05
2.43849e-05
2.43482e-05
2.41683e-05
2.2561e-05
2.6283e-05
2.64102e-05
2.79312e-05
4.07133e-05
4.957e-05
4.69419e-05
3.49665e-05
2.71726e-05
2.4482e-05
2.37102e-05
2.36085e-05
2.37018e-05
2.40944e-05
2.55087e-05
2.82589e-05
2.85129e-05
2.75238e-05
3.01536e-05
2.83408e-05
2.46208e-05
2.46609e-05
2.86419e-05
3.5166e-05
3.70897e-05
3.79848e-05
3.67025e-05
3.04354e-05
2.62606e-05
2.45286e-05
2.39088e-05
2.37836e-05
2.38421e-05
2.4353e-05
2.49355e-05
2.51047e-05
2.50255e-05
2.24907e-05
2.27563e-05
2.24396e-05
2.19231e-05
2.22004e-05
2.48639e-05
3.29798e-05
3.65014e-05
3.65006e-05
3.48012e-05
3.17131e-05
2.91025e-05
2.70895e-05
2.57381e-05
2.46327e-05
2.38752e-05
2.35211e-05
3.08386e-05
2.94887e-05
2.29562e-05
2.09078e-05
2.06674e-05
2.09392e-05
2.31434e-05
3.10582e-05
3.39307e-05
3.36984e-05
3.28614e-05
3.25921e-05
3.25435e-05
3.24968e-05
3.21856e-05
3.03746e-05
2.9088e-05
2.79463e-05
2.67208e-05
2.41996e-05
2.17638e-05
2.14176e-05
2.16868e-05
2.30621e-05
2.38457e-05
2.3811e-05
2.33502e-05
2.30948e-05
2.30715e-05
2.31765e-05
2.36921e-05
2.55687e-05
3.2558e-05
3.90222e-05
4.09184e-05
4.0742e-05
2.16004e-05
2.31632e-05
2.80157e-05
2.85928e-05
2.69716e-05
2.87367e-05
3.10912e-05
3.02e-05
2.75016e-05
2.58879e-05
2.51557e-05
2.49077e-05
2.48827e-05
2.49753e-05
2.54438e-05
2.67693e-05
3.11949e-05
3.96932e-05
2.58269e-05
2.62465e-05
2.34856e-05
2.56745e-05
3.66056e-05
3.6524e-05
3.05227e-05
2.5744e-05
2.40747e-05
2.37461e-05
2.38951e-05
2.49708e-05
2.62475e-05
2.68685e-05
2.72583e-05
2.78378e-05
2.90182e-05
3.20234e-05
2.191e-05
2.80668e-05
2.81058e-05
2.79786e-05
2.68654e-05
2.41582e-05
2.34866e-05
2.35101e-05
2.39234e-05
2.51879e-05
2.9611e-05
4.1852e-05
5.01193e-05
5.3464e-05
5.41088e-05
5.38576e-05
5.24712e-05
5.20566e-05
2.28415e-05
2.27313e-05
2.24894e-05
2.23537e-05
2.17454e-05
2.10885e-05
2.0884e-05
2.08669e-05
2.09321e-05
2.12624e-05
2.24732e-05
2.73768e-05
3.56874e-05
4.00163e-05
4.08822e-05
4.03678e-05
3.71067e-05
3.39862e-05
2.01085e-05
2.22081e-05
2.45241e-05
2.44909e-05
2.28186e-05
2.19962e-05
2.19233e-05
2.20722e-05
2.22816e-05
2.23915e-05
2.24942e-05
2.26929e-05
2.30007e-05
2.33225e-05
2.35476e-05
2.36137e-05
2.35724e-05
2.35803e-05
2.02841e-05
2.09785e-05
2.12536e-05
2.11055e-05
2.09468e-05
2.08981e-05
2.08882e-05
2.08899e-05
2.09062e-05
2.09296e-05
2.09659e-05
2.10462e-05
2.13013e-05
2.24496e-05
2.5411e-05
2.6805e-05
2.69296e-05
2.64999e-05
2.19894e-05
2.07708e-05
2.10078e-05
2.14111e-05
2.18575e-05
2.18884e-05
2.16864e-05
2.15126e-05
2.15522e-05
2.16132e-05
2.19231e-05
2.25167e-05
2.28236e-05
2.30491e-05
2.35988e-05
2.48311e-05
2.55109e-05
2.56162e-05
2.18928e-05
2.1233e-05
2.11615e-05
2.17915e-05
2.22024e-05
2.25387e-05
2.34507e-05
2.54229e-05
2.65137e-05
2.7178e-05
2.7511e-05
2.75639e-05
2.74121e-05
2.63692e-05
2.42492e-05
2.27888e-05
2.19122e-05
2.14425e-05
2.03671e-05
2.14141e-05
2.23693e-05
2.25315e-05
2.23246e-05
2.20602e-05
2.207e-05
2.23912e-05
2.35311e-05
2.42865e-05
2.42773e-05
2.34542e-05
2.23936e-05
2.17876e-05
2.14738e-05
2.13181e-05
2.12441e-05
2.11805e-05
2.17577e-05
2.32508e-05
2.1734e-05
2.11727e-05
2.11666e-05
2.13945e-05
2.16291e-05
2.16664e-05
2.16252e-05
2.15103e-05
2.14703e-05
2.14714e-05
2.15109e-05
2.1549e-05
2.1555e-05
2.15472e-05
2.15058e-05
2.14798e-05
2.06431e-05
2.46528e-05
2.45952e-05
2.50544e-05
2.52436e-05
2.36781e-05
2.2089e-05
2.15101e-05
2.13224e-05
2.12628e-05
2.12299e-05
2.11667e-05
2.10713e-05
2.0981e-05
2.09083e-05
2.08564e-05
2.08254e-05
2.08115e-05
2.02921e-05
2.06037e-05
2.0996e-05
2.24119e-05
2.4924e-05
2.58061e-05
2.59198e-05
2.57511e-05
2.46436e-05
2.31074e-05
2.22912e-05
2.19535e-05
2.1856e-05
2.18407e-05
2.18287e-05
2.16827e-05
2.1404e-05
2.12839e-05
2.1058e-05
2.05517e-05
2.08764e-05
2.5779e-05
3.70561e-05
3.77672e-05
3.3038e-05
2.66565e-05
2.40901e-05
2.34539e-05
2.35127e-05
2.44706e-05
2.68488e-05
2.83026e-05
2.86055e-05
2.82708e-05
2.64999e-05
2.47367e-05
2.15425e-05
2.10002e-05
2.29581e-05
2.9127e-05
3.21991e-05
3.19944e-05
2.9859e-05
2.58405e-05
2.38911e-05
2.31284e-05
2.293e-05
2.29803e-05
2.32278e-05
2.41791e-05
2.61956e-05
2.71915e-05
2.72468e-05
2.65631e-05
2.00198e-05
2.02464e-05
2.15787e-05
2.72464e-05
2.88746e-05
2.75039e-05
2.43501e-05
2.26902e-05
2.18267e-05
2.13794e-05
2.12094e-05
2.11919e-05
2.12753e-05
2.19415e-05
2.2631e-05
2.26007e-05
2.20743e-05
2.14518e-05
2.00022e-05
2.01529e-05
2.12351e-05
2.54324e-05
2.83698e-05
2.86795e-05
2.78988e-05
2.46744e-05
2.24074e-05
2.14838e-05
2.10325e-05
2.07676e-05
2.05985e-05
2.05654e-05
2.05323e-05
2.04491e-05
2.03817e-05
2.0368e-05
2.0008e-05
2.01349e-05
2.04938e-05
2.074e-05
2.07891e-05
2.07263e-05
2.0287e-05
1.93817e-05
1.8977e-05
1.88995e-05
1.89038e-05
1.88965e-05
1.87988e-05
1.82574e-05
1.75087e-05
1.73013e-05
1.73195e-05
1.74159e-05
2.02222e-05
1.84146e-05
1.46369e-05
1.22075e-05
1.0767e-05
1.01597e-05
1.00671e-05
1.0112e-05
1.03385e-05
1.11209e-05
1.23527e-05
1.32044e-05
1.37462e-05
1.4144e-05
1.47394e-05
1.55462e-05
1.65602e-05
1.71217e-05
3.36525e-05
7.74445e-05
7.5681e-05
6.76022e-05
4.9424e-05
3.41029e-05
2.64915e-05
2.37878e-05
2.33387e-05
2.37e-05
2.61873e-05
3.15911e-05
3.51544e-05
3.77392e-05
4.12469e-05
4.67132e-05
5.33998e-05
5.82331e-05
0.00153153
0.00257852
0.00242543
0.00151738
0.000580968
0.000212453
8.52465e-05
4.77564e-05
4.10356e-05
4.31663e-05
5.84282e-05
8.37148e-05
0.000102865
0.000115879
0.000123188
0.000126077
0.000126466
0.000125507
0.141626
0.19931
0.216249
0.241786
0.259651
0.264188
0.262023
0.25869
0.251604
0.247046
0.247104
0.247128
0.246141
0.242014
0.233435
0.225048
0.216084
0.206403
0.197527
0.188653
0.178689
0.168523
0.159629
0.152672
0.147018
0.142024
0.138203
0.134767
0.131338
0.129449
0.127428
0.125658
0.125598
0.126301
0.129052
0.133714
0.142734
0.156417
0.168486
0.203434
0.255989
0.240963
0.205544
0.200735
0.18845
0.184035
0.186003
0.187992
0.18699
0.195057
0.212639
0.244556
0.32562
0.32524
0.362834
0.386192
0.417811
0.338286
0.0725444
0.0277251
0.0221285
0.0207464
0.0200988
0.0194819
0.0190119
0.0185619
0.0180585
0.0178122
0.0174447
0.0172938
0.0170241
0.0169095
0.0165874
0.0164312
0.0159807
0.015649
0.0150355
0.0146478
0.0138204
0.0132491
0.0123655
0.0117061
0.0106505
0.00998739
0.00888162
0.00830698
0.00728716
0.00678596
0.0060171
0.00565785
0.00524772
0.00504155
0.00495549
0.00502063
0.00505157
0.00507687
0.00509845
0.00511312
0.0051223
0.00512697
0.00511756
0.00509827
0.00509419
0.00507595
0.00503534
0.00499258
0.00496731
0.00491395
0.00485811
0.00480308
0.00473815
0.00468311
0.0046172
0.0045503
0.00449258
0.00442413
0.00438077
0.00441781
0.00441889
0.00434748
0.00423264
0.00414237
0.00410435
0.00409396
0.00408315
0.00405664
0.0039855
0.00383452
0.00367386
0.00352126
0.00338259
0.00326109
0.00315669
0.00306706
0.00298815
0.00291189
0.00283567
0.00275755
0.00267332
0.00257835
0.00247856
0.00237876
0.00228075
0.00218024
0.00208208
0.00199783
0.00193084
0.00187097
0.00180898
0.00173979
0.0016719
0.00162333
0.00159947
0.00158129
0.00154023
0.00140862
0.00116612
0.00099468
0.000871149
0.000736734
0.000573663
0.000410609
0.00028383
0.000198473
0.000142218
0.000103788
7.65911e-05
5.71173e-05
4.41161e-05
3.50951e-05
2.90881e-05
2.41199e-05
2.04872e-05
1.6896e-05
1.44377e-05
1.15617e-05
1.00251e-05
7.09694e-06
2.11024e-05
1.60346e-05
0.184913
0.14715
0.152948
0.160278
0.164583
0.177245
0.196455
0.199289
0.197035
0.190001
0.175862
0.153767
0.127957
0.109018
0.095752
0.0864151
0.079817
0.0750638
0.0716646
0.0694846
0.0677527
0.0663968
0.0653304
0.0645262
0.0638738
0.0632512
0.0627375
0.062192
0.0615724
0.0608839
0.0599052
0.059243
0.0585222
0.056799
0.0566234
0.0577288
0.0606158
0.0690093
0.0804752
0.0987628
0.150385
0.199553
0.201938
0.201749
0.201965
0.188094
0.180806
0.181361
0.180688
0.180366
0.177827
0.19348
0.215521
0.25433
0.347543
0.341756
0.170789
0.0877915
0.0278305
0.0171787
0.0140666
0.0126349
0.0115543
0.010712
0.0102806
0.00981799
0.00953734
0.00934086
0.00911189
0.00899213
0.00880617
0.00871293
0.00854342
0.00844986
0.00826345
0.00816193
0.00797835
0.00788279
0.00770554
0.00761648
0.00747946
0.00741145
0.00732074
0.00727499
0.00721177
0.00718066
0.00716252
0.00716275
0.00716322
0.00716273
0.00715774
0.00714108
0.00711095
0.00708673
0.00707228
0.00704555
0.00700846
0.00697683
0.00695888
0.00694597
0.00692572
0.00691058
0.00690644
0.0069049
0.00689817
0.00689782
0.00690252
0.00689935
0.00689451
0.00689363
0.00687897
0.00685417
0.00681444
0.00675682
0.00667816
0.00657786
0.00645176
0.00634877
0.00629055
0.00623027
0.00614808
0.00605643
0.00597192
0.00590397
0.00585545
0.00582369
0.00579592
0.0057453
0.00565501
0.00555162
0.00545027
0.00535625
0.00526974
0.00518973
0.00511166
0.00503174
0.00494863
0.00486006
0.00476283
0.00465349
0.004529
0.00438842
0.00423213
0.00405758
0.00385014
0.00359057
0.00326736
0.00289634
0.00252773
0.00221743
0.00197518
0.00179725
0.0016859
0.0016373
0.00163136
0.00164629
0.0016625
0.00166435
0.00165787
0.00162
0.00157067
0.00154192
0.0015158
0.00148962
0.00146707
0.00143268
0.00135249
0.00115223
0.00094484
0.000766977
0.00063436
0.000519213
0.000431859
0.000347075
0.000287331
0.000225379
0.000199366
0.000155659
0.000149731
0.000129549
0.118998
0.123153
0.124376
0.121316
0.115901
0.109122
0.104761
0.0988097
0.0910597
0.083448
0.0768174
0.0715714
0.0693248
0.0672652
0.0654744
0.0644083
0.0644314
0.0651528
0.0668844
0.0691562
0.0716934
0.0742219
0.0763865
0.0780257
0.0790595
0.0793553
0.079185
0.0784849
0.0767255
0.0739678
0.0706106
0.0666901
0.0629322
0.0595252
0.0558775
0.0524397
0.0509893
0.0512625
0.0527641
0.056675
0.0675004
0.090559
0.141559
0.175636
0.192228
0.192537
0.190468
0.188462
0.189909
0.190329
0.186196
0.178154
0.190683
0.321632
0.272033
0.114293
0.0460405
0.0231409
0.0138471
0.0116869
0.0108447
0.0103273
0.00998971
0.00969963
0.0095264
0.00937976
0.00922073
0.00913756
0.00898855
0.00891091
0.00875811
0.00867902
0.0085419
0.00847374
0.00834622
0.00828072
0.00816174
0.00810332
0.00801143
0.00796737
0.00790161
0.00786042
0.00776661
0.00768393
0.00759113
0.0074914
0.00738081
0.00724374
0.00711674
0.00700697
0.00691523
0.0068029
0.00667469
0.00652572
0.00638354
0.00626516
0.006168
0.00609919
0.0060579
0.00603833
0.00603172
0.00604153
0.00607163
0.00612271
0.00619109
0.00628149
0.00639865
0.0065397
0.00670648
0.00688089
0.00702787
0.00713709
0.0072372
0.00732116
0.00737702
0.00739561
0.0073792
0.00728581
0.00712484
0.00693538
0.00675306
0.00663037
0.006533
0.0064446
0.00635362
0.00625656
0.00617146
0.00610301
0.00604407
0.0059918
0.00595153
0.00591826
0.0058807
0.00583516
0.00577846
0.0057072
0.00562229
0.00552576
0.00541492
0.00528666
0.00514039
0.0049795
0.00481126
0.00464322
0.00448322
0.0043294
0.00417147
0.0039853
0.00372889
0.00338847
0.00300956
0.00261815
0.00218639
0.0017278
0.00136031
0.00116234
0.00108843
0.00106959
0.00105901
0.00103345
0.00101194
0.00100911
0.00101535
0.00105188
0.00115862
0.00121845
0.00122416
0.00120933
0.0011464
0.000965489
0.000793039
0.000655159
0.000554402
0.000462578
0.000393837
0.000324674
0.000282502
0.000230772
0.000210061
0.000172116
0.0600889
0.0546966
0.055472
0.0577248
0.06
0.0613027
0.062617
0.0637495
0.0635466
0.0618469
0.0623029
0.066191
0.0719512
0.0781328
0.0829592
0.0878004
0.0925808
0.0965388
0.0993125
0.101204
0.102128
0.102318
0.102107
0.101453
0.100298
0.0986596
0.0963581
0.0933889
0.0897881
0.0849955
0.0798018
0.0739958
0.0684909
0.0635867
0.0588328
0.0543026
0.0505385
0.0485803
0.0483766
0.0487513
0.0505901
0.0560111
0.069266
0.096537
0.139112
0.169764
0.181962
0.185584
0.187595
0.189853
0.190363
0.185624
0.209531
0.324878
0.118874
0.0423881
0.0205764
0.0143044
0.0123032
0.0116055
0.0112515
0.0111299
0.0111067
0.0111445
0.0111643
0.0110358
0.0108666
0.0107766
0.0105217
0.0103501
0.0102174
0.010067
0.00987019
0.00977988
0.00963775
0.00955541
0.00939974
0.00929124
0.00910009
0.00893403
0.00871577
0.00847931
0.00822629
0.00792306
0.00756592
0.00726261
0.00693924
0.00648638
0.00600274
0.00549219
0.00501041
0.00465546
0.00437279
0.00427177
0.00425905
0.00427578
0.00431673
0.00436984
0.0044272
0.00448913
0.00452718
0.00454048
0.00454251
0.00452253
0.00449367
0.00445362
0.00442134
0.00439884
0.00439638
0.00444922
0.00461796
0.00492176
0.00533045
0.00584485
0.00645505
0.00704686
0.00745721
0.00773242
0.00789519
0.00793741
0.00787922
0.00764439
0.00739909
0.0072336
0.00713599
0.00707918
0.00703203
0.00699061
0.00695917
0.00693501
0.0068967
0.00684907
0.00680277
0.00675912
0.00671386
0.00665995
0.00658957
0.00649461
0.00636175
0.00617517
0.00592567
0.00561085
0.00524916
0.00489455
0.00459631
0.00435049
0.00417366
0.00407186
0.00404557
0.00406404
0.00408326
0.00403414
0.0038095
0.00336738
0.00275363
0.00204173
0.00145833
0.00113463
0.00101014
0.000917132
0.000802187
0.00072737
0.00071783
0.000732378
0.000793784
0.000904163
0.000990304
0.00102842
0.00103032
0.00101549
0.000959405
0.000808947
0.000636413
0.000480715
0.000358967
0.000270977
0.000211765
0.000176961
0.000141111
0.000135987
0.0432347
0.0443788
0.0493708
0.0550064
0.057532
0.0586012
0.06298
0.0719916
0.0783813
0.0813067
0.085245
0.0922779
0.0976495
0.100633
0.103039
0.105254
0.106114
0.106241
0.10603
0.105275
0.104122
0.102602
0.100672
0.0982465
0.0954437
0.0922695
0.0885059
0.0837163
0.0782471
0.0731963
0.0696536
0.0656532
0.0625136
0.0591751
0.0558531
0.052474
0.0494759
0.0473838
0.0463475
0.0461483
0.0463569
0.0473372
0.0502734
0.0575894
0.0728592
0.10327
0.137384
0.162723
0.175449
0.183811
0.189387
0.187278
0.194094
0.310707
0.077976
0.0257097
0.016252
0.014146
0.0134169
0.0137595
0.0143045
0.0145315
0.014409
0.0140207
0.0135323
0.0130457
0.0124803
0.0120401
0.0116749
0.0112893
0.0108836
0.0106293
0.0103215
0.0100762
0.00978911
0.00961907
0.00933928
0.00911028
0.00874739
0.00836063
0.00787174
0.00729957
0.00663872
0.00588066
0.00512127
0.00446185
0.0039263
0.0035604
0.00339913
0.00333989
0.00333284
0.00341756
0.00363114
0.0039042
0.00428896
0.00467096
0.00507518
0.0054621
0.00581457
0.0061317
0.00631064
0.00637787
0.00638036
0.00623735
0.00601956
0.00568999
0.00531595
0.00489409
0.00446729
0.00405892
0.0036851
0.00338526
0.00318475
0.0030877
0.00309863
0.00336224
0.00410571
0.00519013
0.00645863
0.00754724
0.00814518
0.0083847
0.00838173
0.00808202
0.00765014
0.00744865
0.00738382
0.00736845
0.00736566
0.00736888
0.00738345
0.00740864
0.00744149
0.00747362
0.00750231
0.00752596
0.00754204
0.007547
0.00754007
0.00751218
0.00745285
0.00734509
0.00714071
0.00676231
0.00615469
0.00536022
0.00450859
0.00385311
0.00343428
0.00321958
0.0031706
0.00325832
0.00339548
0.00340175
0.00325527
0.00272538
0.00212474
0.00168312
0.00142656
0.00131403
0.00128063
0.00127083
0.00124879
0.00118196
0.00111989
0.00107629
0.00105585
0.00105899
0.00111027
0.00128021
0.00137005
0.00137412
0.0013149
0.00100624
0.000568856
0.000318948
0.000182484
0.000115823
8.34003e-05
6.91212e-05
0.0433178
0.0493736
0.0601076
0.0668917
0.0711812
0.0744331
0.0815448
0.0879708
0.0914953
0.0955121
0.0989685
0.101967
0.103017
0.103219
0.103097
0.10228
0.100203
0.0971439
0.094011
0.0903769
0.0866043
0.0830014
0.0795788
0.0764508
0.0735854
0.071316
0.0702916
0.0700489
0.0699007
0.0692899
0.068002
0.0652561
0.0631585
0.0598981
0.057321
0.05516
0.0536596
0.0526868
0.0516735
0.0511098
0.0501053
0.0483141
0.0476926
0.0486805
0.0523947
0.061237
0.0793358
0.108715
0.140353
0.163981
0.179669
0.18239
0.186962
0.288436
0.0874308
0.0223865
0.0165753
0.015784
0.0176117
0.0184336
0.0183484
0.0177
0.016707
0.0155695
0.014421
0.0134737
0.0126956
0.0120081
0.0115053
0.0110535
0.0105474
0.0101875
0.00977848
0.00940624
0.00893335
0.00846803
0.00778674
0.00701713
0.00615752
0.00529556
0.0044833
0.00387803
0.00347261
0.00330272
0.00323379
0.00322332
0.00334608
0.00359799
0.00383031
0.00429177
0.0050166
0.00595081
0.00708893
0.00832945
0.00955069
0.0106851
0.0117233
0.0125685
0.0132641
0.0138476
0.0140961
0.0141865
0.0142002
0.0140825
0.013833
0.0134097
0.0128169
0.0119846
0.0109238
0.00963416
0.00811691
0.0064715
0.00507119
0.00393613
0.00307829
0.00250809
0.00216831
0.00205306
0.00214684
0.00290554
0.00474234
0.00678593
0.00832795
0.00897065
0.00903525
0.00872012
0.00808888
0.00777423
0.00762993
0.0075648
0.00753634
0.00752888
0.00753667
0.00756333
0.0075909
0.00761456
0.00763269
0.00764323
0.00764592
0.00764374
0.00763454
0.00762187
0.00760414
0.00757139
0.00750101
0.00732888
0.00685908
0.00571264
0.00436688
0.00336372
0.0028204
0.00260463
0.0025772
0.00267905
0.00279696
0.00278203
0.00254416
0.00199023
0.00163347
0.00147031
0.0014208
0.00140452
0.0013761
0.00128557
0.00118186
0.00113853
0.00112249
0.00111853
0.00113072
0.00123933
0.00149996
0.00163739
0.00166077
0.00162248
0.00137648
0.0008419
0.000479077
0.000263786
0.000170238
0.000112336
0.0456134
0.0570477
0.065698
0.0727757
0.0762108
0.079132
0.0835236
0.0871928
0.0895169
0.0906357
0.0908918
0.0892606
0.085124
0.0796301
0.0736725
0.0677152
0.0615942
0.0574091
0.053911
0.0519823
0.0508552
0.0505081
0.0507201
0.0526009
0.0552088
0.0588642
0.0630748
0.0666167
0.06974
0.0725751
0.0765722
0.0806059
0.0819477
0.0806552
0.0785104
0.0774707
0.0777755
0.0804639
0.0833491
0.0867158
0.0856193
0.0784743
0.064509
0.0537271
0.0519284
0.0529878
0.0579595
0.0756554
0.0938704
0.112701
0.144985
0.167264
0.176659
0.242335
0.108991
0.0245824
0.0178991
0.0197598
0.0211724
0.0212551
0.0202363
0.0188955
0.0173661
0.0158272
0.0143293
0.0129421
0.0116365
0.010408
0.00924638
0.00850054
0.00795696
0.00744717
0.00680055
0.00629435
0.00566151
0.00495107
0.00438373
0.00387887
0.00349217
0.0032487
0.0031438
0.00312247
0.0032082
0.00334047
0.00357649
0.00402738
0.00476403
0.00586782
0.0073814
0.00941808
0.0116231
0.0137307
0.0158213
0.0176463
0.0192869
0.0206745
0.0214982
0.0217894
0.0218238
0.0214699
0.020572
0.0196942
0.0188536
0.018139
0.0175063
0.0170713
0.0168187
0.0167072
0.0166448
0.0165791
0.0163736
0.0157518
0.0140973
0.0114202
0.00834903
0.0059616
0.00407812
0.00269672
0.00183107
0.00139388
0.00129629
0.00150594
0.00288263
0.0060588
0.00857237
0.00961725
0.00978265
0.00964097
0.00895084
0.00835694
0.00807729
0.00795498
0.00792212
0.00791679
0.00790599
0.00787233
0.00781603
0.00775902
0.00771336
0.00767907
0.00765213
0.00763063
0.00761161
0.00759477
0.00757705
0.00754136
0.00746375
0.00727332
0.00668857
0.00507112
0.00354689
0.00268782
0.00234652
0.00228038
0.00232594
0.00240599
0.00239534
0.00221403
0.00175109
0.00147834
0.00138018
0.00135285
0.00132044
0.00122847
0.00108998
0.00102065
0.00101261
0.0010183
0.00103912
0.00111184
0.00134024
0.00154219
0.00162485
0.00163231
0.00158886
0.00134468
0.000876249
0.000531386
0.00032912
0.000214223
0.0468655
0.06073
0.0684786
0.0721386
0.0742263
0.0755632
0.0761663
0.0741626
0.0685885
0.0622114
0.0544381
0.0481156
0.0416078
0.0381143
0.0340787
0.0319307
0.0298985
0.0289379
0.0284308
0.0282638
0.0284837
0.029044
0.0299373
0.0312645
0.0332577
0.036514
0.041457
0.0491926
0.0586965
0.06919
0.0775436
0.0870288
0.0963544
0.103016
0.107266
0.110105
0.113564
0.119145
0.126147
0.131816
0.133581
0.128013
0.124115
0.113795
0.0846963
0.0661924
0.0641218
0.068051
0.0773324
0.0904151
0.124264
0.153806
0.164857
0.213704
0.139493
0.031128
0.0200895
0.0223293
0.0232559
0.0222921
0.020672
0.0189138
0.0169441
0.0147969
0.012617
0.010152
0.00787258
0.00623969
0.00525048
0.004699
0.00442981
0.00415355
0.00385488
0.00362086
0.00337381
0.00314246
0.00302248
0.002971
0.00298538
0.00306956
0.00318532
0.00341835
0.00386466
0.00458488
0.00581095
0.00763727
0.0101366
0.0126781
0.0153407
0.0179053
0.0203465
0.0229001
0.0252128
0.0272966
0.028949
0.0299676
0.0303865
0.0302829
0.0291027
0.0276697
0.0257027
0.0237648
0.0218235
0.0202138
0.0189152
0.0179938
0.0174338
0.0171491
0.0171804
0.017446
0.0178832
0.0184802
0.0192391
0.0196725
0.0188215
0.0155077
0.0116068
0.00814043
0.00521295
0.00302856
0.00165726
0.000987667
0.000793149
0.000877318
0.00183438
0.00544246
0.00831401
0.00964858
0.0100931
0.010118
0.00998086
0.00948635
0.00904576
0.00879645
0.00867785
0.0086022
0.0085123
0.00837249
0.00818538
0.00798931
0.00782579
0.00770896
0.00762742
0.0075674
0.00752833
0.00750772
0.00748014
0.00741934
0.00726745
0.00679171
0.00520775
0.00349675
0.00256678
0.00222216
0.00216662
0.00220606
0.00223909
0.00219956
0.0019172
0.00143721
0.00119608
0.00112846
0.00107518
0.000974202
0.000872676
0.000812669
0.000798812
0.000818221
0.000924395
0.00107237
0.00117377
0.00128333
0.00139727
0.00145276
0.00145418
0.00139928
0.00114551
0.000736028
0.000451303
0.000281012
0.0484816
0.0615037
0.0662273
0.0671809
0.0644114
0.0574762
0.0510107
0.042573
0.0377044
0.031949
0.0289798
0.0258766
0.0243689
0.0232332
0.0225513
0.0222062
0.0220468
0.0220091
0.0221284
0.0223293
0.0226629
0.0229172
0.0230509
0.0231251
0.0231934
0.0234409
0.0242004
0.0250376
0.0285877
0.0355753
0.0492226
0.0650059
0.0820288
0.0972606
0.106155
0.111278
0.1154
0.119759
0.124926
0.126597
0.127699
0.126241
0.131306
0.146368
0.154091
0.148676
0.124766
0.0952742
0.0890145
0.0940615
0.115904
0.139938
0.151093
0.195382
0.161025
0.0471663
0.023549
0.0238253
0.0240122
0.0224189
0.0202676
0.0177272
0.0143936
0.0112746
0.00883403
0.00703628
0.00501852
0.00374185
0.00319504
0.00295175
0.00286344
0.00287648
0.00285073
0.00283419
0.0028135
0.00281675
0.00288625
0.00298027
0.00316019
0.0034865
0.00405466
0.00510512
0.00690937
0.00925361
0.0118406
0.0142983
0.0165125
0.0191415
0.0220195
0.025352
0.0293103
0.0337594
0.0383585
0.0432059
0.0474916
0.0506141
0.0520017
0.0523161
0.0505527
0.0472289
0.0424626
0.0370887
0.0315354
0.0266189
0.0227456
0.0199676
0.0182138
0.017277
0.0169322
0.0169222
0.0172535
0.0180494
0.0193554
0.0209424
0.0224214
0.022835
0.021744
0.0180889
0.0133514
0.00891413
0.00530634
0.00279547
0.00132829
0.000654868
0.000486394
0.000623443
0.00164324
0.00526511
0.00822996
0.00955107
0.0100099
0.0101001
0.0100851
0.00998035
0.00958802
0.00914353
0.00885385
0.00866815
0.00849406
0.00826938
0.00802909
0.00783188
0.00769271
0.00759251
0.00751473
0.00746516
0.0074338
0.00739519
0.00731812
0.00712812
0.00649375
0.00464556
0.00311353
0.00236513
0.00212727
0.00209762
0.00210562
0.00209338
0.00196439
0.00151189
0.00111529
0.000901144
0.000793719
0.000713016
0.000652764
0.000622823
0.000617805
0.000635334
0.000767547
0.00103259
0.00118159
0.00122906
0.00124198
0.00126442
0.00127662
0.00126545
0.00116122
0.000839831
0.000552387
0.000351916
0.0495765
0.0590422
0.0599231
0.0529404
0.0428504
0.0371802
0.0305244
0.0271689
0.0245598
0.0232744
0.0227765
0.0226217
0.0228615
0.0231285
0.0236123
0.0247569
0.0262405
0.0280925
0.0299674
0.0315341
0.0323422
0.0326634
0.0324531
0.0313551
0.0296036
0.0270964
0.0246281
0.0223904
0.0206705
0.0191405
0.0184947
0.0191121
0.0234907
0.0323776
0.0462133
0.0585083
0.069406
0.0774109
0.0804111
0.0861072
0.0937936
0.098181
0.108106
0.130251
0.144989
0.146686
0.142533
0.128771
0.114244
0.110134
0.117884
0.129043
0.139863
0.182696
0.167364
0.0643999
0.0273023
0.0246695
0.0240701
0.0218417
0.017582
0.0136746
0.0104287
0.00806046
0.00640016
0.00505197
0.00351852
0.00252862
0.00229978
0.00226634
0.00245925
0.00259933
0.00269915
0.00278665
0.00282932
0.0029267
0.00315243
0.00353948
0.00424016
0.00548241
0.00743119
0.00967364
0.0118373
0.0138413
0.0160799
0.0185851
0.0217835
0.0260337
0.0317045
0.0391515
0.0484488
0.0594196
0.0716027
0.0836051
0.0937847
0.0992212
0.101199
0.100509
0.0962831
0.0896655
0.0806371
0.0697805
0.0575107
0.0450837
0.0350222
0.0273439
0.0221649
0.0190495
0.0174813
0.0169192
0.0168777
0.0171612
0.0179876
0.0200172
0.0226312
0.0247775
0.025718
0.0255611
0.0236889
0.0184748
0.0126679
0.00774084
0.00419888
0.00200496
0.000832456
0.000399705
0.000393715
0.000706083
0.00192689
0.00542988
0.00808399
0.00933522
0.00979768
0.00983965
0.00977185
0.00954224
0.00907511
0.00860308
0.0081667
0.00786973
0.00772697
0.00762248
0.00752637
0.00746678
0.00743677
0.00741927
0.0073988
0.00736646
0.00730785
0.00718293
0.00684769
0.005665
0.00382653
0.00272354
0.00224001
0.00208264
0.00204469
0.00201346
0.00191529
0.00155575
0.00113414
0.000854314
0.000671278
0.000561493
0.00050429
0.000482424
0.000480192
0.000491403
0.000570787
0.000857476
0.00109876
0.00120216
0.00122443
0.00122143
0.00121029
0.00118002
0.00106896
0.000798113
0.000566161
0.000392081
0.0488757
0.0536322
0.0492664
0.0366676
0.0302894
0.0259688
0.0233975
0.0224245
0.0221498
0.0225984
0.0231984
0.0245855
0.0272249
0.0313486
0.0377788
0.0434817
0.0475393
0.0503341
0.0517045
0.0522836
0.0524229
0.0521149
0.051756
0.0510223
0.0501654
0.0486421
0.0461988
0.0412358
0.0344252
0.0258079
0.0179225
0.0134789
0.0100383
0.00876979
0.00820973
0.0103676
0.0156862
0.0268428
0.0494903
0.0706074
0.0838628
0.0928095
0.105165
0.131194
0.177188
0.195635
0.189746
0.17506
0.147329
0.128694
0.124913
0.128201
0.137058
0.175442
0.16671
0.0671599
0.0283687
0.0248668
0.0235955
0.0186913
0.0130857
0.0102948
0.00815318
0.00605972
0.00450731
0.00380591
0.00273106
0.0019366
0.00185803
0.00206586
0.00244917
0.00261577
0.0027758
0.0029898
0.00322712
0.00368332
0.00460847
0.00581583
0.00746306
0.00938587
0.0110162
0.0129855
0.0148425
0.0171152
0.0201244
0.0242611
0.0299057
0.0384524
0.0511012
0.0688879
0.0919657
0.113177
0.12732
0.132458
0.133478
0.132341
0.128664
0.124198
0.119114
0.113238
0.106217
0.0978782
0.0879409
0.0757357
0.0602722
0.044416
0.0326737
0.0252203
0.0208695
0.0186952
0.0178606
0.0177092
0.0179918
0.0192633
0.0222419
0.0253231
0.0274144
0.0283007
0.0283346
0.0273911
0.0230777
0.0159049
0.0097309
0.00532301
0.0025915
0.00108688
0.000438161
0.000311822
0.000404794
0.000895823
0.00234333
0.0053085
0.00748343
0.00858516
0.00891822
0.00889027
0.00869618
0.00812363
0.00735294
0.00675815
0.00640033
0.00627545
0.00628784
0.00649363
0.00680457
0.00695953
0.00702215
0.00703908
0.00703645
0.00700256
0.00684622
0.00621158
0.00447545
0.00308815
0.00237447
0.00209074
0.00200176
0.00195152
0.00184725
0.00152931
0.00112651
0.0008385
0.000635692
0.000497325
0.000419123
0.000390592
0.000386406
0.000390153
0.000417219
0.000545991
0.000866742
0.00107619
0.00115448
0.0011619
0.00113815
0.00101776
0.00084121
0.000680677
0.000520542
0.000385231
0.0473931
0.0485589
0.0381898
0.0278623
0.0237245
0.0218737
0.0213328
0.0216587
0.0224416
0.0241398
0.0275146
0.0342809
0.0455303
0.0528837
0.0573151
0.0591215
0.0597103
0.0596161
0.0587072
0.0583345
0.0577384
0.0574598
0.0566621
0.0561324
0.0552087
0.0548273
0.0546886
0.0546464
0.054588
0.051853
0.0441822
0.0304743
0.0160769
0.00891742
0.00544971
0.00423375
0.00385582
0.0062586
0.0142453
0.032217
0.0619696
0.0834921
0.0981162
0.131194
0.191653
0.229701
0.232367
0.224952
0.206061
0.175807
0.150888
0.143461
0.148341
0.177451
0.160945
0.0586168
0.0276885
0.0246031
0.0209783
0.0142895
0.0105341
0.00886689
0.00752344
0.00566538
0.00384732
0.00281972
0.00207795
0.00160579
0.00158852
0.00200613
0.00252715
0.00293559
0.00336524
0.00379294
0.00457887
0.00578195
0.00739029
0.00928132
0.0106285
0.01173
0.0136095
0.0155666
0.0180029
0.0212378
0.0257063
0.032199
0.0439991
0.0643265
0.0931825
0.123855
0.138888
0.145017
0.146492
0.14454
0.140244
0.135033
0.129568
0.124266
0.119357
0.114452
0.108904
0.102287
0.0945528
0.0861596
0.0766115
0.0647289
0.0494369
0.0361282
0.027815
0.023217
0.0210765
0.0203205
0.0201744
0.0204606
0.02247
0.0260861
0.0287043
0.030098
0.0305944
0.0306419
0.0300645
0.0267181
0.0183427
0.0110252
0.00594835
0.00288219
0.00123047
0.000494745
0.000271571
0.000280583
0.000467696
0.0010496
0.0024883
0.00432007
0.00549104
0.005827
0.00578264
0.00546893
0.00462471
0.00392702
0.00356631
0.00348618
0.00358929
0.0043315
0.00551879
0.00613123
0.00632131
0.00634899
0.00635224
0.00635167
0.00631714
0.00607875
0.00497677
0.00338769
0.00247133
0.00206645
0.00192747
0.00186565
0.0017597
0.00147381
0.00110163
0.000818277
0.000617039
0.000475431
0.00038367
0.000337521
0.000325568
0.000325684
0.000332127
0.000362755
0.000486835
0.000776145
0.000957433
0.00101165
0.0010031
0.000889255
0.00062713
0.000503832
0.000417805
0.000342731
0.0449975
0.0438325
0.0303465
0.0235477
0.0211427
0.0205454
0.0207697
0.0220612
0.0244024
0.0304041
0.0421696
0.0553065
0.0615002
0.0642369
0.0650561
0.0646399
0.063271
0.0626626
0.0618404
0.0614682
0.0611764
0.0611737
0.0603448
0.0590723
0.0573181
0.0558804
0.0550446
0.0546917
0.0561254
0.057854
0.0583021
0.0553699
0.0460176
0.0261742
0.0114682
0.00505808
0.00265543
0.00188074
0.00221152
0.00564839
0.0180905
0.0539265
0.0879225
0.118317
0.193478
0.238576
0.247516
0.244872
0.234231
0.214084
0.192402
0.173299
0.168967