/*--------------------------------*- C++ -*----------------------------------*\
  =========                 |
  \\      /  F ield         | OpenFOAM: The Open Source CFD Toolbox
   \\    /   O peration     | Website:  https://openfoam.org
    \\  /    A nd           | Version:  6
     \\/     M anipulation  |
\*---------------------------------------------------------------------------*/
FoamFile
{
    version     2.0;
    format      ascii;
    class       volScalarField;
    location    "0.05";
    object      nut;
}
// * * * * * * * * * * * * * * * * * * * * * * * * * * * * * * * * * * * * * //

dimensions      [0 2 -1 0 0 0 0];

internalField   nonuniform List<scalar> 
12225
(
2.49316e-09
2.64157e-09
0
0
0
0
0
0
0
0
0
0
0
0
0
0
0
3.72606e-09
6.84091e-10
7.38101e-10
0
0
0
0
0
0
0
0
0
0
0
0
0
0
0
1.85895e-10
8.18513e-10
3.6724e-10
0
0
0
0
0
0
0
0
0
0
0
0
0
0
0
0
4.54266e-08
2.15593e-08
4.31474e-11
0
0
0
0
0
0
0
0
0
0
0
0
0
0
0
0
0
0
0
3.50865e-07
1.88014e-06
2.32706e-06
2.16587e-06
3.73551e-07
0
0
0
0
0
8.91715e-09
1.92994e-08
6.29157e-09
0
0
0
0
0
4.63109e-07
2.30616e-06
2.89349e-06
1.78977e-06
1.70278e-06
0
0
0
0
0
0
4.40524e-07
1.00495e-06
4.96074e-07
0
0
0
0
1.76254e-07
8.84495e-07
4.07203e-07
8.25838e-07
1.24797e-06
1.63397e-07
0
0
0
0
0
0
1.03433e-07
0
0
0
2.4117e-07
3.14108e-07
1.25503e-07
0
5.11979e-07
1.76491e-06
1.24708e-06
5.66759e-07
6.18511e-08
0
0
0
0
5.32738e-08
0
0
0
0
9.00285e-07
2.15992e-07
0
0
2.57706e-09
8.23906e-07
8.13417e-07
3.4087e-07
0
0
0
0
2.74665e-08
7.67219e-08
5.15745e-09
0
0
0
7.48054e-08
1.25965e-07
0
0
9.03081e-08
1.62534e-07
0
0
0
0
0
0
0
3.76994e-07
4.40211e-07
2.26169e-07
0
1.01643e-07
5.58778e-07
8.48943e-07
6.81798e-07
8.35226e-08
2.51225e-07
7.23162e-08
0
0
0
0
0
0
0
0
3.76366e-08
0
2.88773e-07
2.95993e-07
7.74385e-07
1.41549e-06
2.24866e-06
1.5131e-06
3.45423e-07
0
0
0
0
0
0
0
0
0
0
0
1.67674e-07
1.18481e-06
7.49105e-07
5.57828e-07
7.51496e-07
3.62354e-07
1.55236e-08
0
0
0
0
1.49816e-07
1.99514e-07
1.80084e-07
1.77349e-07
2.62323e-07
1.20821e-07
0
0
0
1.32155e-06
8.71689e-07
0
0
0
0
0
0
0
0
1.82071e-07
4.68942e-07
7.57377e-07
7.00532e-07
1.08446e-07
2.27739e-07
0
0
2.23872e-06
2.4448e-06
6.4538e-07
0
3.36445e-08
0
0
0
0
0
0
0
1.62502e-09
2.89341e-07
5.841e-07
7.07375e-07
5.66263e-07
3.63295e-07
3.45152e-07
0
0
0
0
0
0
0
0
0
0
0
3.11815e-07
6.8264e-07
8.12676e-07
8.15767e-07
3.07662e-07
4.67187e-07
1.0407e-07
0
0
0
1.74579e-07
7.07632e-07
1.52259e-06
9.67721e-07
0
0
4.79061e-07
1.68166e-06
1.89176e-06
1.49462e-06
1.04429e-06
7.22141e-07
2.82224e-07
3.7589e-07
0
0
0
0
3.90905e-07
1.06398e-06
1.75266e-06
1.97234e-06
1.26245e-06
8.21774e-07
9.84523e-07
1.15573e-06
9.95059e-07
4.60224e-07
0
0
3.70613e-07
6.64867e-08
0
0
0
3.07322e-08
0
0
3.25305e-07
1.1303e-06
7.59631e-07
0
0
0
0
0
0
0
9.48383e-07
1.45824e-06
1.18729e-06
0
2.85965e-08
0
0
0
0
0
0
0
0
0
0
0
0
0
0
0
2.6562e-07
5.4126e-07
9.47065e-07
5.82838e-08
0
0
0
0
0
0
0
0
0
0
0
0
0
0
0
3.68067e-07
1.65462e-06
1.53769e-06
0
1.74499e-07
3.07488e-08
0
0
0
0
0
1.56739e-07
2.92751e-07
0
0
1.27462e-06
8.2568e-07
0
2.82155e-07
1.96732e-06
2.13511e-06
1.78594e-06
0
0
0
0
9.76421e-08
8.9133e-08
1.89942e-07
4.30016e-07
7.29056e-07
9.24828e-07
7.48386e-07
8.60693e-07
5.60295e-07
0
4.84987e-07
2.03903e-06
2.68517e-06
1.97364e-06
3.45937e-07
0
0
0
9.04275e-08
4.14577e-07
8.58154e-07
1.24777e-06
1.20198e-06
8.31629e-07
4.21435e-07
0
0
0
4.41871e-07
1.78776e-06
1.6891e-06
4.52906e-07
0
7.25306e-08
0
0
0
0
0
9.0787e-07
7.83509e-07
3.04363e-07
2.06094e-08
0
0
0
1.02599e-07
7.73658e-07
8.35755e-07
5.74953e-07
2.30445e-07
0
0
0
0
0
1.17787e-08
1.79511e-07
2.65001e-07
1.37803e-07
1.18354e-08
0
0
2.21868e-09
1.95329e-08
1.78351e-08
1.17581e-08
4.57617e-09
0
0
0
0
0
0
0
0
0
0
1.08016e-09
3.17316e-09
1.24497e-09
5.90279e-10
5.22412e-11
0
0
0
0
0
0
0
0
0
0
0
0
0
0
4.04348e-09
3.13226e-09
1.71798e-09
4.03135e-10
0
0
0
0
0
0
0
0
0
0
0
0
0
0
2.51954e-08
1.79526e-08
9.55898e-09
2.05167e-09
0
0
0
0
0
0
0
0
0
0
0
0
0
0
3.36142e-05
2.88215e-05
1.57662e-05
3.59222e-06
0
0
0
0
0
6.96895e-07
3.55825e-06
5.37174e-06
6.21702e-06
6.48681e-06
6.4441e-06
6.16402e-06
5.56644e-06
4.68046e-06
3.66134e-06
2.64434e-06
1.70596e-06
8.79189e-07
1.65369e-07
0
0
0
0
0
0
0
0
0
0
2.68828e-07
1.02263e-06
1.86967e-06
2.69648e-06
3.38693e-06
4.23215e-06
6.1767e-06
7.15447e-06
2.74363e-06
0
0
5.40468e-06
9.19733e-06
1.57952e-05
1.28459e-05
2.49438e-06
9.55242e-06
2.19694e-05
1.95142e-05
0
1.65024e-06
8.42815e-05
0.000115044
0.000128142
8.23158e-05
1.87702e-05
3.99674e-06
9.52851e-07
3.7287e-07
3.48126e-07
3.81912e-07
3.88064e-07
3.69783e-07
3.3963e-07
3.12101e-07
2.88258e-07
2.73647e-07
2.65045e-07
2.63768e-07
2.65211e-07
2.71091e-07
2.76392e-07
2.8348e-07
2.87563e-07
2.92403e-07
2.90626e-07
2.88754e-07
2.80357e-07
2.71175e-07
2.53997e-07
2.38178e-07
2.14006e-07
1.93443e-07
1.65378e-07
1.41293e-07
1.1297e-07
8.73562e-08
6.02123e-08
3.31645e-08
5.14755e-09
0
0
0
0
0
0
0
0
0
0
0
0
0
0
0
0
0
0
0
0
0
0
0
0
0
1.66674e-08
0
0
0
0
0
0
0
0
0
0
0
0
0
0
3.65003e-10
2.29362e-09
5.75563e-09
1.02635e-08
1.4517e-08
1.69273e-08
1.63103e-08
1.2358e-08
5.72771e-09
0
0
0
0
0
0
0
0
0
0
0
0
0
0
0
0
0
0
0
0
0
0
0
0
0
0
0
0
0
0
0
0
0
0
0
0
1.8903e-09
8.94127e-10
1.19223e-05
1.76288e-05
1.50906e-05
6.07099e-06
0
0
0
0
0
0
0
0
0
0
0
0
0
0
0
0
0
0
0
0
0
0
0
0
0
0
0
0
0
0
0
4.35712e-07
1.33031e-06
1.96339e-06
2.43026e-06
3.76334e-06
2.42558e-06
0
0
0
1.10093e-06
0
0
0
0
0
0
0
0
2.10389e-05
2.06975e-05
1.28615e-05
1.10723e-05
1.23758e-05
6.70966e-06
3.19866e-06
1.41682e-06
8.68039e-07
7.32484e-07
6.61206e-07
5.94498e-07
5.24526e-07
4.64393e-07
4.18034e-07
3.82316e-07
3.60473e-07
3.46003e-07
3.40238e-07
3.37189e-07
3.38437e-07
3.39266e-07
3.42366e-07
3.43241e-07
3.44735e-07
3.42541e-07
3.3995e-07
3.33564e-07
3.25683e-07
3.14009e-07
2.99806e-07
2.81606e-07
2.60315e-07
2.35475e-07
2.07146e-07
1.7509e-07
1.394e-07
1.00177e-07
5.74775e-08
1.15223e-08
0
0
0
0
0
0
0
0
0
0
0
0
0
0
0
0
0
0
0
0
0
0
0
0
0
5.65102e-09
5.79706e-08
4.43479e-08
1.99055e-08
8.26693e-10
0
0
0
0
0
0
0
0
0
0
0
0
0
0
2.16606e-08
4.45654e-08
5.92405e-08
6.39012e-08
5.93819e-08
4.83527e-08
3.42156e-08
1.99154e-08
6.9807e-09
0
0
0
0
0
0
0
0
0
0
0
0
0
0
0
0
0
0
0
0
0
0
0
0
0
0
0
0
0
0
2.49045e-10
0
1.06175e-08
3.85861e-09
5.50448e-06
1.49687e-05
2.23439e-05
2.29252e-05
1.78643e-05
2.42704e-06
0
0
0
0
0
0
0
0
0
0
0
0
0
0
0
0
0
0
0
0
0
0
0
0
0
0
0
0
0
0
0
0
0
0
0
0
0
0
0
0
0
0
0
0
0
0
2.2094e-05
2.62038e-05
1.60618e-05
6.27559e-06
2.95425e-06
3.66133e-06
3.40201e-06
2.4085e-06
2.11383e-06
2.51979e-06
2.99103e-06
3.16762e-06
3.03681e-06
2.75138e-06
2.43857e-06
2.1853e-06
1.9844e-06
1.84905e-06
1.7477e-06
1.68441e-06
1.63336e-06
1.59935e-06
1.5646e-06
1.53766e-06
1.50496e-06
1.47525e-06
1.43825e-06
1.4e-06
1.35291e-06
1.29965e-06
1.23259e-06
1.1562e-06
1.06833e-06
9.6935e-07
8.59707e-07
7.39837e-07
6.13276e-07
4.81383e-07
3.44779e-07
2.02778e-07
5.5272e-08
0
0
0
0
0
0
0
0
0
0
0
0
0
0
0
0
0
0
0
0
0
0
0
0
0
0
0
0
0
0
0
0
0
0
0
0
0
0
0
0
0
0
0
0
1.59713e-08
1.24664e-07
2.10365e-07
2.63947e-07
2.84555e-07
2.76616e-07
2.47926e-07
2.08149e-07
1.65998e-07
1.26527e-07
9.05356e-08
5.67088e-08
2.52106e-08
0
0
0
0
0
0
0
0
0
0
0
0
0
0
0
0
0
0
0
0
0
0
0
0
0
0
4.56821e-09
9.35878e-10
2.28548e-08
9.38688e-10
1.30202e-06
2.19915e-06
5.43167e-06
0
0
0
0
0
0
0
0
0
0
0
0
0
0
0
0
0
0
0
0
0
0
0
0
0
0
0
0
0
0
0
0
0
0
0
0
0
0
0
0
0
0
0
0
0
0
0
0
4.81566e-07
3.64716e-06
1.70716e-05
8.43054e-06
2.44444e-06
8.72637e-07
1.56792e-06
2.13923e-06
2.47924e-06
2.92695e-06
3.04032e-06
2.55582e-06
1.85032e-06
1.24136e-06
8.37724e-07
5.99144e-07
4.71282e-07
3.97307e-07
3.53704e-07
3.25455e-07
3.04902e-07
2.88868e-07
2.80081e-07
2.79268e-07
2.8901e-07
3.06531e-07
3.32777e-07
3.66486e-07
4.12515e-07
4.73287e-07
5.54259e-07
6.61353e-07
7.99972e-07
9.76754e-07
1.20772e-06
1.50078e-06
1.85704e-06
2.3065e-06
2.88492e-06
3.65675e-06
4.66351e-06
4.99382e-06
0
0
0
0
0
0
0
0
0
0
0
0
0
0
0
0
0
0
0
0
0
0
0
0
0
0
0
0
0
0
0
0
0
0
2.44749e-08
3.78459e-08
3.85034e-08
2.54887e-08
0
0
0
0
0
0
1.49921e-08
9.72004e-08
1.75816e-07
2.31249e-07
2.37069e-07
1.68636e-07
1.84232e-08
0
0
0
0
0
0
0
0
0
0
0
0
0
0
0
0
1.28405e-08
1.24902e-08
0
0
0
0
0
0
0
0
0
0
0
0
0
0
9.59245e-09
0
2.29661e-08
0
0
0
0
0
0
0
0
0
0
0
1.82337e-07
8.17606e-07
7.06626e-07
4.33048e-07
1.20519e-07
0
0
0
0
0
0
0
9.25507e-08
2.33196e-07
3.56828e-07
4.70135e-07
5.62141e-07
6.05206e-07
5.90901e-07
5.31223e-07
4.21054e-07
2.4035e-07
2.3215e-08
0
0
0
0
4.73288e-07
1.02472e-06
1.12837e-06
1.23967e-06
9.82065e-07
6.52798e-07
1.26858e-07
0
0
0
0
2.48244e-06
1.59476e-06
1.29863e-06
0
0
9.69298e-06
4.4534e-06
0
0
0
1.31094e-06
2.57053e-06
2.56132e-06
1.8267e-06
1.01004e-06
4.71559e-07
1.78411e-07
6.07827e-08
4.23003e-08
7.191e-08
1.11738e-07
1.36416e-07
1.36394e-07
1.16237e-07
9.0262e-08
7.44319e-08
7.73381e-08
1.0084e-07
1.43763e-07
2.0831e-07
2.95847e-07
4.09691e-07
5.46114e-07
6.96757e-07
8.46483e-07
9.76041e-07
1.07792e-06
1.15996e-06
1.23582e-06
1.33278e-06
1.48761e-06
1.71486e-06
2.03709e-06
2.47705e-06
2.70522e-06
5.53785e-07
0
0
0
0
0
0
0
0
0
0
0
0
0
0
0
0
0
0
0
0
0
0
0
0
0
0
0
0
0
0
0
6.17135e-09
6.86724e-08
1.00738e-07
1.0866e-07
9.62273e-08
6.47644e-08
1.46698e-08
0
0
0
0
0
0
0
0
0
0
0
0
0
0
0
0
0
0
0
0
0
0
0
0
0
0
0
0
3.06068e-08
3.47264e-07
1.3089e-07
0
0
0
0
0
0
0
0
0
3.07352e-08
4.17467e-08
2.5716e-08
0
0
0
0
0
0
0
0
0
0
0
1.16629e-06
9.07552e-08
0
0
0
0
0
0
0
0
9.31909e-08
2.54423e-07
4.28491e-07
6.28055e-07
8.56158e-07
1.11006e-06
1.3767e-06
1.63775e-06
1.87483e-06
2.07616e-06
2.23225e-06
2.30885e-06
2.26695e-06
2.08566e-06
1.77803e-06
1.38629e-06
1.02492e-06
7.72994e-07
6.96759e-07
7.25201e-07
8.46359e-07
1.16766e-06
1.55376e-06
1.86447e-06
1.89699e-06
1.37947e-06
1.0059e-06
1.21083e-06
1.21458e-06
4.67084e-07
0
0
4.59907e-06
7.52487e-07
0
0
0
4.37324e-06
2.52502e-06
0
0
0
1.84017e-06
3.67975e-06
3.57077e-06
2.4956e-06
1.36099e-06
6.17273e-07
2.25176e-07
7.86591e-08
7.19817e-08
1.27962e-07
1.92698e-07
2.27777e-07
2.20955e-07
1.91104e-07
1.70666e-07
1.82932e-07
2.31471e-07
3.11073e-07
4.06945e-07
5.0309e-07
5.76882e-07
6.12277e-07
6.06564e-07
5.81537e-07
5.57763e-07
5.59227e-07
5.93643e-07
6.74636e-07
8.31325e-07
1.09685e-06
1.49386e-06
2.14068e-06
3.19412e-06
4.72701e-06
3.44431e-06
0
0
0
0
0
0
0
0
0
0
0
0
0
0
0
0
0
0
0
0
0
0
0
0
0
0
0
0
0
0
0
0
0
0
6.75851e-08
1.05848e-07
1.1057e-07
8.62126e-08
3.64473e-08
0
0
0
0
0
0
0
0
0
0
0
0
0
0
0
0
0
0
0
0
0
0
0
0
0
0
0
0
0
1.83767e-07
0
0
0
0
0
0
0
0
0
0
5.72602e-08
3.12699e-07
5.84399e-07
4.91472e-07
3.66028e-07
2.24016e-08
3.29972e-08
0
0
0
0
0
0
0
0
0
0
0
0
0
0
0
0
0
0
0
0
1.82928e-07
5.99294e-07
1.0366e-06
1.47767e-06
1.91847e-06
2.32108e-06
2.66066e-06
2.88777e-06
2.92721e-06
2.74341e-06
2.32711e-06
1.73978e-06
1.06691e-06
4.67641e-07
1.40373e-07
1.96918e-07
5.49606e-07
9.8988e-07
1.55419e-06
2.53787e-06
3.78663e-06
4.07268e-06
2.8085e-06
1.33283e-06
2.59936e-07
0
0
0
0
0
0
0
0
0
0
6.47146e-08
0
0
0
2.94193e-06
5.7091e-06
5.82202e-06
4.19274e-06
2.2918e-06
9.94897e-07
3.29099e-07
8.59992e-08
6.47499e-08
1.3473e-07
2.15669e-07
2.64097e-07
2.69296e-07
2.51959e-07
2.4609e-07
2.70962e-07
3.10752e-07
3.40354e-07
3.45721e-07
3.19729e-07
2.77389e-07
2.40059e-07
2.26597e-07
2.4918e-07
3.1954e-07
4.45303e-07
6.41873e-07
9.36505e-07
1.36045e-06
1.94575e-06
2.70779e-06
3.63745e-06
4.39184e-06
3.39068e-06
0
0
0
0
0
0
0
0
0
0
0
0
0
0
0
0
0
0
0
0
0
0
0
0
0
0
0
0
0
0
0
0
0
0
0
0
2.50276e-08
6.21957e-08
5.54945e-08
1.25906e-08
0
0
0
0
0
0
0
0
0
0
0
0
0
0
0
0
0
0
0
0
0
0
0
0
0
0
0
0
0
0
0
0
0
0
0
0
0
0
4.38122e-07
6.52768e-07
8.16779e-07
1.0143e-06
1.27281e-06
1.29054e-06
1.073e-06
5.50396e-07
9.50185e-08
0
0
0
0
0
0
0
0
0
0
0
0
0
0
0
0
0
0
0
0
0
3.29947e-07
8.02629e-07
1.25004e-06
1.65793e-06
2.01722e-06
2.32562e-06
2.56078e-06
2.70029e-06
2.66246e-06
2.44508e-06
2.11707e-06
1.90112e-06
1.90509e-06
2.14956e-06
2.54752e-06
2.86086e-06
3.10801e-06
4.12817e-06
6.68223e-06
9.56208e-06
1.00675e-05
8.06999e-06
6.65487e-06
5.43964e-06
3.04671e-06
5.62079e-07
0
0
0
0
0
0
0
0
0
0
0
0
2.90809e-06
5.75441e-06
6.71817e-06
5.51533e-06
3.05418e-06
1.12469e-06
2.46385e-07
5.53771e-09
3.66199e-08
1.51352e-07
2.59626e-07
3.10277e-07
2.86554e-07
2.02993e-07
1.11967e-07
4.97227e-08
1.80605e-08
4.65416e-09
7.08879e-10
7.39286e-09
3.274e-08
8.60928e-08
1.76194e-07
3.13661e-07
5.09583e-07
7.65665e-07
1.07971e-06
1.41228e-06
1.69963e-06
1.82786e-06
1.76605e-06
1.433e-06
6.80102e-07
0
0
0
0
0
1.79154e-07
2.80169e-07
2.21616e-07
6.3366e-08
0
0
0
0
0
0
0
0
0
0
0
0
0
0
0
0
0
0
0
0
0
0
0
0
0
0
0
0
0
2.53485e-08
3.17262e-08
0
0
0
0
0
0
0
0
0
0
0
0
0
0
0
0
0
0
0
0
0
0
0
0
5.66092e-07
8.75603e-07
7.15901e-07
6.25759e-08
0
0
0
0
0
0
0
0
0
2.04375e-07
5.04341e-07
1.07247e-06
2.63727e-06
2.37793e-06
1.93294e-06
1.83874e-06
1.72559e-06
1.48788e-06
9.29109e-07
2.65357e-07
0
0
0
0
0
0
0
0
0
0
0
0
0
0
0
0
0
0
0
0
0
0
3.121e-07
6.52491e-07
9.57258e-07
1.23369e-06
1.48777e-06
1.73138e-06
1.96199e-06
2.32423e-06
2.91635e-06
3.91546e-06
5.13187e-06
6.49545e-06
7.83553e-06
8.76527e-06
8.91099e-06
8.16528e-06
7.82821e-06
1.01535e-05
1.37676e-05
1.35498e-05
1.0591e-05
9.72166e-06
1.07634e-05
1.09505e-05
1.00908e-05
8.14394e-06
5.3773e-06
4.04486e-06
1.88517e-06
0
0
0
0
0
0
0
0
1.73442e-06
3.72354e-06
4.93019e-06
5.38063e-06
3.79236e-06
1.31559e-06
2.82228e-07
6.80425e-08
1.21922e-07
2.42775e-07
3.40274e-07
3.4657e-07
2.36809e-07
5.02181e-08
0
0
0
0
0
0
1.03397e-07
2.34224e-07
3.90769e-07
5.71098e-07
7.59602e-07
9.00557e-07
9.50036e-07
8.91162e-07
7.3178e-07
4.86404e-07
1.29615e-07
0
0
0
0
8.18409e-07
1.85643e-06
2.28369e-06
2.32292e-06
2.16938e-06
1.89257e-06
1.54888e-06
1.16281e-06
7.60624e-07
3.70293e-07
2.56903e-08
0
0
0
0
0
0
0
0
0
0
0
0
0
0
0
0
0
0
0
0
0
0
0
0
0
0
0
0
0
0
0
0
0
0
0
0
0
0
0
0
0
0
1.1067e-07
0
0
0
0
0
0
0
3.55943e-07
1.32637e-06
1.63851e-06
1.54301e-06
9.93235e-07
0
0
7.50393e-08
0
0
0
0
0
0
5.95289e-07
7.82426e-07
7.50631e-07
1.05035e-06
2.26514e-06
2.74512e-06
2.32237e-06
1.95936e-06
1.62687e-06
1.04792e-06
3.80028e-07
0
0
0
0
0
0
0
0
0
0
0
0
0
0
0
0
0
0
0
8.89354e-08
2.80291e-07
2.48411e-07
1.3422e-07
9.97654e-08
2.47777e-07
5.85261e-07
1.04041e-06
1.53184e-06
2.00323e-06
2.44653e-06
2.84103e-06
3.2283e-06
3.64712e-06
4.35359e-06
5.37639e-06
6.56864e-06
7.17836e-06
6.99973e-06
6.13566e-06
5.57994e-06
6.37074e-06
5.71541e-06
3.5531e-06
2.91517e-06
3.74194e-06
3.90127e-06
3.78665e-06
4.35806e-06
5.3727e-06
6.31563e-06
6.03743e-06
2.37168e-06
0
0
2.32776e-06
0
0
0
0
9.16134e-07
2.17585e-06
2.46736e-06
2.84036e-06
4.47689e-06
3.12817e-06
8.56818e-07
1.96511e-07
7.83912e-08
1.58416e-07
2.81397e-07
3.35561e-07
2.57464e-07
4.35311e-08
0
0
0
0
4.76163e-08
1.94568e-07
3.36013e-07
4.49463e-07
5.14003e-07
5.11188e-07
4.60117e-07
3.89044e-07
3.094e-07
2.0717e-07
6.49331e-08
0
0
0
0
1.0633e-07
9.57426e-07
1.51536e-06
1.66308e-06
1.56405e-06
1.37201e-06
1.14659e-06
9.05694e-07
6.86578e-07
5.21199e-07
4.14549e-07
3.35511e-07
2.3763e-07
7.84188e-08
0
0
0
0
0
0
0
0
0
0
0
0
0
0
0
0
0
0
0
0
0
0
0
0
0
0
0
0
0
0
0
0
0
0
0
0
4.08496e-08
9.8702e-10
0
0
1.21528e-07
4.04449e-07
5.67537e-07
4.43351e-07
4.7196e-07
7.45219e-07
9.77882e-07
9.79571e-07
8.46282e-07
6.29904e-07
7.51782e-07
1.07041e-06
1.18515e-06
9.4014e-07
6.49202e-08
0
5.79266e-07
8.32056e-07
6.92688e-07
1.01678e-07
1.61524e-07
4.28164e-07
6.61549e-07
1.21417e-06
1.09875e-06
8.00156e-07
7.16963e-07
8.7149e-07
1.55019e-06
2.279e-06
2.10394e-06
1.59016e-06
8.89772e-07
2.65949e-07
0
0
0
0
0
0
0
0
0
0
0
0
0
0
0
3.89361e-07
2.21272e-06
4.03004e-06
5.32588e-06
5.49941e-06
4.23104e-06
1.79191e-06
0
0
0
0
0
0
9.86166e-07
1.77966e-06
2.11289e-06
2.16306e-06
2.19699e-06
2.09319e-06
2.02496e-06
1.93829e-06
2.09712e-06
2.3913e-06
2.66424e-06
2.6126e-06
1.90807e-06
1.72302e-06
9.84908e-07
0
0
0
0
0
0
0
2.77379e-06
5.49309e-06
1.02615e-05
5.07592e-06
9.23094e-07
0
0
0
0
6.141e-07
1.26443e-06
8.18559e-07
2.98108e-07
6.40198e-07
3.79217e-06
1.70402e-06
0
0
0
1.69363e-07
3.71079e-07
3.83848e-07
1.42771e-07
0
0
0
3.57471e-08
2.10264e-07
3.51105e-07
3.98542e-07
3.4325e-07
2.26436e-07
1.2599e-07
8.26829e-08
9.93752e-08
1.49517e-07
2.04716e-07
2.45094e-07
2.73924e-07
3.26151e-07
4.43125e-07
5.62117e-07
4.71205e-07
9.50665e-08
0
0
0
0
0
0
0
0
0
0
0
0
0
0
0
0
0
0
0
0
0
0
0
0
0
0
0
0
0
0
0
0
0
0
0
0
0
0
0
0
0
0
0
0
0
0
0
2.29501e-07
3.95638e-07
4.65462e-07
4.87076e-07
5.21727e-07
6.92001e-07
1.08117e-06
1.44195e-06
1.44061e-06
1.49594e-06
1.82179e-06
2.17994e-06
2.18877e-06
1.95789e-06
1.43167e-06
2.1687e-07
0
0
0
0
0
0
3.69405e-08
3.11304e-07
1.03805e-06
9.11627e-07
8.34748e-07
9.13697e-07
1.10105e-06
1.7927e-06
1.08008e-06
7.94531e-07
7.47087e-07
7.22903e-07
9.95403e-07
1.75322e-06
1.33995e-06
5.26481e-07
2.56507e-08
0
0
0
0
0
0
0
0
0
0
0
0
0
6.13848e-07
3.18885e-06
6.52236e-06
1.04215e-05
1.453e-05
1.79462e-05
1.88273e-05
1.49257e-05
5.21784e-06
0
0
0
0
0
0
0
0
7.31206e-07
8.66804e-07
1.1957e-06
1.54792e-06
1.53286e-06
1.25139e-06
1.01437e-06
8.89852e-07
1.09392e-06
1.45352e-06
1.49906e-06
1.79399e-06
2.45563e-06
3.3547e-07
0
0
0
0
0
0
0
0
7.80872e-06
6.30832e-07
0
0
0
0
0
4.28037e-07
7.25825e-07
3.2e-07
0
0
1.26955e-06
2.72317e-06
0
0
0
7.5291e-08
4.02503e-07
5.14869e-07
2.4767e-07
0
0
0
1.57167e-08
2.18648e-07
3.61926e-07
3.70592e-07
2.83382e-07
1.88202e-07
1.54523e-07
2.21138e-07
3.66567e-07
5.44326e-07
6.96032e-07
7.64574e-07
6.60897e-07
3.13815e-07
0
0
0
0
0
0
0
0
0
0
0
0
0
0
0
0
0
0
0
0
0
0
0
0
0
0
0
0
0
0
0
0
0
0
0
0
0
0
0
0
0
0
3.64893e-08
1.58108e-07
1.69088e-07
1.00554e-07
4.08018e-08
9.1554e-08
2.98089e-07
5.984e-07
9.27457e-07
1.26333e-06
1.56824e-06
1.77703e-06
1.96326e-06
2.12531e-06
2.27126e-06
2.53095e-06
2.81882e-06
2.85557e-06
2.76286e-06
2.85388e-06
3.02442e-06
2.93913e-06
2.49816e-06
1.95393e-06
9.16555e-07
0
0
0
0
0
0
0
0
2.18446e-07
1.15926e-06
1.35477e-06
1.11601e-06
1.04763e-06
1.21725e-06
1.76572e-06
1.05588e-06
9.12033e-07
8.43854e-07
6.60506e-07
8.99532e-07
5.63692e-07
0
0
0
0
0
0
0
0
0
0
0
0
0
0
1.78831e-06
5.00614e-06
9.36484e-06
1.51916e-05
2.28503e-05
3.25718e-05
4.46557e-05
5.71154e-05
6.07503e-05
2.44344e-05
0
0
0
0
0
0
0
0
1.23469e-06
5.03524e-07
0
0
4.92786e-07
1.34765e-06
1.14517e-06
7.62557e-07
4.66238e-07
2.02625e-07
0
0
0
0
0
0
0
0
0
0
0
0
2.4408e-06
0
0
0
0
0
0
2.22896e-07
5.35858e-07
3.54497e-07
0
0
1.26659e-06
3.89602e-06
0
0
0
2.42227e-08
3.94384e-07
6.22747e-07
3.12678e-07
0
0
0
0
3.01605e-07
5.72166e-07
6.70422e-07
6.36845e-07
4.90473e-07
3.78321e-07
3.69569e-07
4.53979e-07
5.68258e-07
5.77435e-07
2.63362e-07
0
0
0
0
0
0
0
0
0
0
0
0
0
0
0
0
0
0
0
0
0
0
0
0
0
0
0
0
0
0
0
0
0
0
0
0
0
0
0
0
3.25363e-08
7.2515e-08
7.7134e-08
8.71084e-08
1.61509e-07
5.08174e-07
1.03845e-06
1.4182e-06
1.66076e-06
1.83524e-06
2.04539e-06
2.23575e-06
2.37937e-06
2.48417e-06
2.54233e-06
2.58335e-06
2.74503e-06
3.27006e-06
3.60939e-06
3.73164e-06
3.78423e-06
3.75593e-06
3.60566e-06
3.46369e-06
3.39211e-06
3.2319e-06
2.71208e-06
2.17729e-06
1.46268e-06
6.60049e-08
0
0
0
0
0
2.50462e-08
0
1.17495e-08
3.22926e-07
1.15545e-06
1.33994e-06
1.14087e-06
1.03765e-06
1.14717e-06
1.44075e-06
1.15208e-06
1.11274e-06
9.91719e-07
1.0619e-06
0
0
0
0
0
0
0
0
0
0
0
0
0
0
2.04673e-06
5.24572e-06
9.58481e-06
1.54633e-05
2.3285e-05
3.27589e-05
4.16894e-05
4.42009e-05
3.45493e-05
1.19511e-05
0
0
0
0
0
0
0
0
0
1.74303e-06
2.74355e-06
2.32502e-07
0
0
0
8.33343e-07
8.82718e-07
4.63156e-07
1.75165e-07
0
0
0
0
0
0
0
0
0
0
0
3.95024e-06
1.12675e-05
0
0
0
0
0
0
6.44041e-08
7.95731e-07
9.99122e-07
5.31987e-07
2.69528e-07
2.29609e-06
5.81184e-06
1.2506e-06
0
0
0
3.07916e-07
5.94268e-07
3.77277e-07
0
0
0
1.55132e-08
6.73671e-07
1.07013e-06
1.11223e-06
8.85661e-07
5.35551e-07
1.94298e-07
0
0
0
0
0
0
0
0
0
0
0
0
1.7624e-07
1.93843e-06
2.14406e-06
1.76038e-06
1.21412e-06
6.47672e-07
3.11617e-08
0
0
0
0
0
0
0
0
0
0
0
0
0
0
0
0
0
0
0
0
0
0
0
0
8.34235e-08
1.48076e-07
1.90808e-07
2.15719e-07
2.12326e-07
2.01528e-07
2.23289e-07
3.09088e-07
4.97722e-07
7.61508e-07
9.45955e-07
1.07585e-06
1.16886e-06
1.21559e-06
1.23783e-06
1.22636e-06
1.1852e-06
1.14518e-06
1.23313e-06
1.72017e-06
2.5315e-06
2.87645e-06
2.89147e-06
2.91255e-06
3.1367e-06
3.27237e-06
3.23237e-06
3.10677e-06
2.70957e-06
2.20906e-06
1.71801e-06
8.44534e-07
0
0
0
0
0
1.44659e-07
9.72793e-08
5.63269e-08
1.54216e-07
4.0637e-07
9.44033e-07
1.24201e-06
1.22175e-06
1.17869e-06
1.17633e-06
1.15309e-06
1.15626e-06
1.05471e-06
5.90222e-07
0
0
0
0
0
0
0
0
0
0
0
0
0
8.00397e-07
2.74589e-06
5.13829e-06
7.83231e-06
1.04308e-05
1.16834e-05
9.50986e-06
2.67879e-06
0
0
0
0
0
0
0
0
0
0
0
0
0
2.10161e-06
2.0875e-06
0
0
0
0
7.3092e-07
4.97021e-07
1.79327e-07
4.52895e-08
0
0
0
6.39084e-07
1.90523e-06
4.64035e-06
7.91131e-06
7.14933e-06
5.26864e-06
6.34606e-06
1.25626e-05
1.92599e-05
8.38196e-06
1.41059e-06
7.30423e-07
0
0
0
0
1.77129e-06
2.57046e-06
2.27855e-06
1.845e-06
3.18072e-06
2.17374e-06
0
0
5.69986e-08
1.06239e-07
2.29851e-07
4.59926e-07
4.009e-07
0
0
0
3.58204e-09
8.06473e-07
1.23037e-06
1.14013e-06
6.26659e-07
0
0
0
0
0
0
0
0
0
0
0
0
0
1.75736e-07
2.89061e-06
3.27538e-06
2.82834e-06
2.13107e-06
1.4021e-06
8.90756e-07
6.26205e-07
3.59106e-07
0
0
0
0
0
0
0
0
0
0
0
0
0
0
0
0
0
0
0
0
0
0
0
3.49925e-07
4.94e-07
5.05152e-07
4.57574e-07
3.9045e-07
3.21664e-07
2.79795e-07
2.73247e-07
3.0682e-07
3.57322e-07
4.19956e-07
4.71027e-07
5.24897e-07
5.65806e-07
5.79533e-07
5.69629e-07
5.43805e-07
5.09039e-07
5.14678e-07
7.02687e-07
1.19687e-06
1.51648e-06
1.5797e-06
1.58282e-06
1.87536e-06
2.41583e-06
2.67008e-06
2.6945e-06
2.5236e-06
2.12717e-06
1.79105e-06
1.30097e-06
2.74649e-07
0
0
1.54752e-07
1.64867e-07
1.56808e-07
1.56229e-07
1.15936e-07
1.21874e-07
1.89903e-07
3.33155e-07
6.50805e-07
9.39707e-07
1.18674e-06
1.41321e-06
1.2463e-06
7.88482e-07
6.14083e-07
0
0
0
0
0
0
0
0
0
0
0
0
0
0
0
0
0
0
0
0
0
0
0
0
0
0
0
0
0
0
0
0
0
0
0
1.14711e-06
1.86972e-06
5.63996e-08
0
0
0
8.65232e-07
5.28629e-07
1.67829e-07
2.85051e-08
0
0
0
0
4.58186e-07
3.73758e-06
1.07773e-05
1.48399e-05
1.25314e-05
9.55601e-06
7.04823e-06
6.35441e-06
5.76231e-06
4.13458e-06
2.37722e-06
6.80094e-07
0
0
0
2.20282e-06
5.50931e-06
5.79804e-06
3.9809e-06
3.00697e-07
0
0
0
0
1.22482e-07
2.47445e-07
3.38172e-07
3.42548e-07
0
0
0
0
5.55085e-07
8.66386e-07
6.57263e-07
9.60489e-08
0
0
0
0
0
0
0
0
0
0
0
0
0
0
8.60143e-07
1.653e-06
1.95599e-06
1.64185e-06
9.31165e-07
2.99693e-07
6.35769e-08
1.3831e-07
9.32812e-08
0
0
0
0
0
6.98238e-08
0
0
0
0
0
0
0
0
0
0
0
0
0
0
0
0
5.45656e-07
9.10258e-07
9.82618e-07
8.76177e-07
7.02805e-07
5.31872e-07
3.95496e-07
3.17612e-07
2.87903e-07
2.92759e-07
3.05741e-07
3.31582e-07
3.89375e-07
4.37271e-07
4.55822e-07
4.51541e-07
4.31811e-07
3.96746e-07
3.66215e-07
4.24977e-07
6.6517e-07
8.35135e-07
8.70821e-07
8.43101e-07
9.61069e-07
1.50698e-06
2.04277e-06
2.26194e-06
2.26132e-06
2.00514e-06
1.77112e-06
1.51337e-06
9.93645e-07
2.79114e-08
0
3.07265e-07
8.25704e-08
1.44697e-08
5.71194e-08
3.72622e-08
0
0
1.00801e-07
2.38963e-07
3.42635e-07
4.45399e-07
5.93385e-07
7.08582e-07
5.78863e-07
3.04865e-07
0
0
0
0
0
0
0
2.54493e-08
7.3807e-07
1.00317e-06
8.58212e-07
4.49068e-07
0
0
0
0
0
0
0
0
0
0
0
0
0
0
0
0
0
0
0
0
6.88699e-07
1.1996e-07
4.39329e-07
1.68261e-06
2.04826e-06
7.44047e-07
0
0
8.79298e-07
1.05618e-06
4.62223e-07
9.07834e-08
0
0
0
0
0
0
0
2.53179e-06
8.30238e-06
1.01842e-05
8.44395e-06
4.68762e-06
9.15833e-07
0
0
0
0
0
0
0
0
0
0
0
0
0
0
0
0
0
3.25788e-08
2.6724e-07
3.03595e-07
3.7006e-08
0
0
0
3.23031e-09
7.05086e-07
4.86538e-07
0
0
0
0
0
2.71717e-07
1.16325e-06
1.42737e-06
1.22404e-06
9.3389e-07
4.36979e-07
0
0
0
0
0
2.76508e-07
1.47413e-06
1.72124e-06
1.0913e-06
2.95794e-07
0
0
0
0
0
0
0
3.28614e-08
2.28014e-07
0
0
0
1.66347e-07
0
0
0
0
0
0
0
0
0
0
0
0
6.54884e-07
1.40207e-06
1.6003e-06
1.45664e-06
1.1605e-06
8.49745e-07
5.93999e-07
4.16138e-07
3.23656e-07
2.95452e-07
2.94137e-07
3.03333e-07
3.34806e-07
4.00098e-07
4.41452e-07
4.59982e-07
4.64501e-07
4.53078e-07
4.26185e-07
4.37666e-07
5.50355e-07
5.9762e-07
5.83104e-07
5.26841e-07
5.12491e-07
8.31149e-07
1.42834e-06
1.83664e-06
1.96838e-06
1.83292e-06
1.67375e-06
1.54962e-06
1.34412e-06
9.17944e-07
3.83285e-07
2.33362e-07
0
0
0
0
0
0
0
1.57325e-07
1.85327e-07
1.70859e-07
1.79139e-07
2.03965e-07
2.0342e-07
0
0
0
0
0
0
2.17286e-07
2.48922e-07
2.65657e-07
1.17448e-06
1.92954e-06
1.93188e-06
1.55514e-06
1.00577e-06
2.60256e-07
0
0
0
0
0
0
0
0
0
0
0
0
0
0
0
0
2.83239e-06
3.96811e-06
3.51568e-06
2.07079e-06
1.35805e-06
1.65783e-06
1.69563e-06
6.68055e-07
0
0
1.31504e-06
8.85046e-07
2.27731e-07
0
0
0
0
0
0
0
0
0
1.35115e-06
4.86092e-06
5.46554e-06
3.12494e-06
0
0
0
0
0
0
0
0
0
0
0
0
0
0
0
0
0
0
0
0
1.59672e-07
1.55111e-07
0
0
0
0
2.91596e-07
8.43599e-07
3.6414e-07
0
0
0
0
1.12365e-06
2.48109e-06
3.1359e-06
2.63674e-06
1.10447e-06
0
0
0
0
0
0
3.35352e-07
1.5458e-06
1.95888e-06
1.54485e-06
7.89391e-07
1.30621e-07
0
0
0
0
0
0
0
2.64127e-07
0
0
2.09497e-07
5.51827e-07
0
0
0
0
0
0
0
0
0
0
0
0
1.36216e-07
1.90783e-06
2.40566e-06
2.21408e-06
1.76289e-06
1.27563e-06
8.70699e-07
5.80208e-07
4.0476e-07
3.29313e-07
3.10949e-07
3.13838e-07
3.28602e-07
3.68888e-07
4.10048e-07
4.38709e-07
4.61293e-07
4.87949e-07
5.25912e-07
6.05595e-07
6.69467e-07
6.16102e-07
5.48089e-07
4.6415e-07
3.71138e-07
4.56598e-07
9.30423e-07
1.46689e-06
1.71955e-06
1.66669e-06
1.55405e-06
1.50966e-06
1.45243e-06
1.36645e-06
1.22915e-06
2.37118e-07
0
0
0
0
0
0
0
2.31132e-07
2.59661e-07
1.6595e-07
1.26557e-07
1.71774e-07
2.1354e-07
0
0
0
0
0
0
1.9594e-06
2.19527e-06
1.84864e-06
1.47608e-06
2.26003e-06
2.44089e-06
2.15691e-06
1.72216e-06
1.22816e-06
6.10486e-07
0
0
0
0
0
0
0
0
0
0
0
0
0
4.49323e-07
6.6089e-06
7.72259e-06
6.37208e-06
4.16067e-06
2.11217e-06
1.38684e-06
1.36338e-06
1.25517e-06
7.05635e-07
1.31388e-07
1.07102e-06
1.3509e-06
5.01093e-07
4.76823e-08
0
0
0
0
0
0
0
0
0
0
6.72136e-07
2.57326e-06
2.49818e-06
6.80499e-09
0
0
0
0
0
0
0
0
0
0
0
0
0
0
0
0
0
0
0
0
0
0
0
0
0
0
2.57424e-07
8.20008e-07
2.53304e-07
0
0
0
0
0
0
0
0
0
0
0
0
6.58258e-07
1.5009e-06
2.00362e-06
2.1044e-06
1.88717e-06
1.56059e-06
1.09878e-06
5.36193e-07
3.64534e-08
0
0
0
0
0
0
1.92252e-07
1.86705e-07
2.62539e-07
7.02372e-07
8.97639e-07
0
0
0
0
0
0
0
0
0
0
0
0
0
1.47859e-06
3.30345e-06
3.19351e-06
2.5189e-06
1.80241e-06
1.20763e-06
7.85127e-07
5.22899e-07
3.90038e-07
3.43382e-07
3.35521e-07
3.42642e-07
3.62546e-07
3.77451e-07
3.92185e-07
4.1443e-07
4.53744e-07
5.38647e-07
7.17689e-07
7.90585e-07
7.21492e-07
6.36644e-07
5.48341e-07
4.21093e-07
3.19511e-07
5.65417e-07
1.12117e-06
1.48451e-06
1.50456e-06
1.41028e-06
1.39727e-06
1.41652e-06
1.43265e-06
1.52457e-06
8.25402e-07
0
0
0
0
0
0
0
2.46588e-07
4.75101e-07
3.43337e-07
3.30039e-07
4.40083e-07
2.3202e-07
0
0
0
0
0
0
1.27289e-05
8.99991e-06
4.29722e-06
1.87956e-06
1.72049e-06
2.23024e-06
2.12635e-06
1.80583e-06
1.43799e-06
1.05862e-06
5.92835e-07
0
0
0
0
0
0
0
0
0
0
0
0
1.1179e-05
1.10059e-05
7.96824e-06
5.03617e-06
2.59321e-06
1.46673e-06
1.31665e-06
1.26075e-06
1.14689e-06
1.16794e-06
1.68935e-06
2.11729e-06
1.05678e-06
2.98914e-07
1.13447e-08
0
0
0
0
0
0
0
0
0
0
0
5.94899e-07
1.47872e-06
4.21499e-07
0
0
0
0
0
0
0
0
0
0
0
0
0
0
0
1.04536e-07
0
0
0
0
0
0
0
0
0
0
0
0
4.08844e-07
0
0
0
0
0
0
0
0
0
3.61127e-07
1.72317e-06
3.00993e-06
4.10807e-06
4.76111e-06
4.68689e-06
3.42374e-06
1.97798e-06
1.57176e-06
1.3122e-06
8.49019e-07
2.62078e-07
0
0
0
0
0
0
1.91842e-07
5.54123e-07
8.02642e-07
1.3638e-06
1.34129e-06
6.06281e-07
0
0
0
0
0
0
0
0
0
0
0
0
0
3.34473e-06
4.34591e-06
3.47522e-06
2.44432e-06
1.61718e-06
1.03618e-06
6.76404e-07
4.85335e-07
3.99433e-07
3.70354e-07
3.65107e-07
3.64729e-07
3.60126e-07
3.62637e-07
3.86771e-07
4.34963e-07
5.42142e-07
7.2886e-07
7.82904e-07
7.40501e-07
7.03745e-07
6.90607e-07
6.37523e-07
4.09635e-07
3.74954e-07
8.07887e-07
1.24453e-06
1.33367e-06
1.26303e-06
1.24412e-06
1.27201e-06
1.2966e-06
1.16162e-06
5.45943e-07
0
0
0
0
0
0
0
0
2.08185e-07
0
2.58717e-07
4.60358e-07
4.18302e-07
0
0
0
0
0
0
2.34932e-05
1.13956e-05
4.54004e-06
1.72786e-06
7.61359e-07
1.44138e-06
1.65169e-06
1.47443e-06
1.19419e-06
9.10791e-07
6.32991e-07
3.11514e-07
0
0
0
0
0
0
0
0
0
0
1.55702e-05
1.32587e-05
7.75243e-06
4.65916e-06
2.46987e-06
1.355e-06
1.205e-06
1.33667e-06
1.3906e-06
1.59002e-06
2.81311e-06
3.7455e-06
2.08375e-06
6.63519e-07
1.83398e-07
3.68322e-08
1.90318e-10
0
1.69492e-09
9.52062e-10
0
0
0
0
0
0
0
0
1.3708e-07
0
0
0
0
0
0
0
0
0
0
0
0
0
0
0
0
0
1.42034e-07
5.23456e-08
0
0
0
0
0
0
0
0
0
0
0
0
1.41609e-07
0
0
0
0
0
8.4235e-07
2.08806e-06
3.09373e-06
4.14856e-06
5.39568e-06
6.60106e-06
7.58585e-06
7.69661e-06
4.76813e-06
2.12503e-06
1.89197e-06
1.62626e-06
1.11824e-06
4.76862e-07
0
0
0
0
0
0
4.17033e-07
1.07136e-06
1.59341e-06
2.40229e-06
2.46253e-06
2.36445e-06
3.99739e-07
0
2.70433e-07
3.61493e-06
4.40631e-06
0
0
0
0
0
0
0
0
9.50373e-08
5.15153e-06
4.62667e-06
3.21654e-06
2.08162e-06
1.29422e-06
8.14588e-07
5.62201e-07
4.49939e-07
4.05722e-07
3.87451e-07
3.7039e-07
3.48846e-07
3.35587e-07
3.5517e-07
4.15876e-07
5.39045e-07
7.11938e-07
7.30705e-07
6.78628e-07
6.78153e-07
7.71749e-07
9.02437e-07
7.00244e-07
4.01324e-07
5.73315e-07
9.90025e-07
1.14462e-06
1.10672e-06
1.06656e-06
1.06146e-06
1.0649e-06
6.66141e-07
0
0
0
0
0
0
0
0
0
0
0
3.09055e-07
5.45239e-07
5.2097e-07
0
0
0
0
0
0
1.92144e-05
1.02953e-05
5.76262e-06
2.51576e-06
9.11233e-07
3.89784e-07
8.08504e-07
8.67351e-07
7.30755e-07
5.54748e-07
3.89922e-07
2.2841e-07
3.77412e-08
0
0
0
0
0
0
0
0
3.94007e-07
4.08617e-06
3.81794e-06
2.55503e-06
1.68671e-06
1.08395e-06
9.74268e-07
1.36767e-06
1.79322e-06
2.18374e-06
3.7756e-06
6.45009e-06
4.10752e-06
1.41121e-06
4.69354e-07
1.70781e-07
7.41479e-08
4.68306e-08
4.02168e-08
3.67869e-08
3.18551e-08
2.35403e-08
1.12214e-08
0
0
0
0
0
0
0
0
0
0
0
0
0
0
0
0
0
0
0
0
0
0
0
0
1.29154e-08
1.64272e-07
1.33337e-07
0
0
0
0
0
0
0
0
0
0
0
0
9.28777e-07
2.05059e-06
2.9808e-06
3.36012e-06
3.56972e-06
3.9311e-06
4.30378e-06
4.66637e-06
5.41333e-06
6.55245e-06
7.83419e-06
9.18393e-06
9.22184e-06
3.93505e-06
1.90001e-06
2.01122e-06
1.78846e-06
1.24474e-06
6.60612e-07
2.83555e-07
0
0
0
0
0
9.6431e-07
1.81559e-06
2.85887e-06
3.99428e-06
4.2565e-06
4.7304e-06
2.50109e-06
2.65292e-06
6.89779e-06
6.20233e-06
1.96244e-06
0
0
0
0
0
0
0
0
0
4.18611e-06
5.84018e-06
4.1659e-06
2.66923e-06
1.66284e-06
1.03241e-06
6.88572e-07
5.27426e-07
4.57057e-07
4.20085e-07
3.85075e-07
3.50805e-07