/*--------------------------------*- C++ -*----------------------------------*\
  =========                 |
  \\      /  F ield         | OpenFOAM: The Open Source CFD Toolbox
   \\    /   O peration     | Website:  https://openfoam.org
    \\  /    A nd           | Version:  6
     \\/     M anipulation  |
\*---------------------------------------------------------------------------*/
FoamFile
{
    version     2.0;
    format      ascii;
    class       volScalarField;
    location    "0.05";
    object      p;
}
// * * * * * * * * * * * * * * * * * * * * * * * * * * * * * * * * * * * * * //

dimensions      [0 2 -2 0 0 0 0];

internalField   nonuniform List<scalar> 
12225
(
163.218
165.974
169.351
171.713
173.378
174.528
175.251
175.596
175.632
175.432
175.055
174.574
174.031
173.463
172.852
172.23
171.441
170.498
162.176
165.912
169.335
171.711
173.402
174.563
175.277
175.605
175.627
175.423
175.052
174.576
174.038
173.464
172.851
172.199
171.437
170.512
160.995
165.894
169.455
171.831
173.49
174.617
175.304
175.616
175.638
175.445
175.085
174.613
174.068
173.476
172.837
172.149
171.379
170.467
159.902
165.972
169.596
171.941
173.603
174.731
175.404
175.697
175.702
175.493
175.122
174.639
174.085
173.479
172.822
172.113
171.326
170.45
159.585
166.042
169.803
172.141
173.778
174.876
175.517
175.785
175.776
175.56
175.185
174.696
174.131
173.508
172.831
172.1
171.307
170.473
159.772
166.345
170.159
172.443
174.016
175.063
175.665
175.913
175.893
175.666
175.278
174.775
174.196
173.557
172.86
172.109
171.314
170.498
162.311
167.016
170.594
172.825
174.361
175.357
175.906
176.109
176.054
175.801
175.392
174.872
174.274
173.614
172.898
172.136
171.341
170.521
161.263
167.83
171.21
173.331
174.79
175.696
176.176
176.338
176.255
175.975
175.544
175.007
174.395
173.72
172.99
172.213
171.4
170.556
164.118
168.984
171.991
173.96
175.317
176.127
176.536
176.651
176.531
176.217
175.753
175.184
174.541
173.839
173.085
172.289
171.458
170.597
167.124
170.431
172.846
174.704
175.974
176.685
177.001
177.039
176.854
176.49
175.993
175.401
174.737
174.013
173.24
172.425
171.575
170.691
170.058
172.123
174.05
175.717
176.809
177.34
177.533
177.503
177.269
176.856
176.31
175.675
174.974
174.22
173.423
172.589
171.724
170.824
173.779
173.755
175.28
176.701
177.642
178.066
178.155
178.029
177.713
177.235
176.641
175.972
175.243
174.464
173.642
172.786
171.901
170.99
174.572
175.234
176.665
177.86
178.614
178.895
178.861
178.633
178.238
177.693
177.043
176.325
175.557
174.751
173.909
173.036
172.135
171.21
171.824
176.591
178.46
179.462
179.955
180.011
179.801
179.432
178.926
178.298
177.582
176.805
175.986
175.133
174.256
173.361
172.451
171.527
176.36
179.409
180.889
181.511
181.65
181.483
181.091
180.535
179.858
179.095
178.28
177.435
176.565
175.674
174.764
173.84
172.908
171.97
181.475
183.554
184.431
184.52
184.011
183.38
182.692
181.914
181.067
180.173
179.242
178.292
177.337
176.383
175.432
174.487
173.548
172.614
187.396
189.667
189.213
188.272
187.091
185.987
184.923
183.809
182.69
181.598
180.525
179.463
178.411
177.373
176.352
175.355
174.382
173.435
213.105
200.949
195.955
193.106
190.973
189.22
187.65
186.15
184.725
183.38
182.103
180.882
179.715
178.596
177.523
176.492
175.501
174.543
200.532
202.157
200.218
197.691
195.167
192.871
190.78
188.864
187.13
185.549
184.076
182.687
181.374
180.134
178.965
177.862
176.821
175.839
220.264
212.021
206.269
202.105
198.75
195.971
193.528
191.294
189.26
187.424
185.755
184.219
182.793
181.468
180.234
179.08
177.998
176.98
222.881
215.315
209.772
205.129
201.306
198.095
195.316
192.855
190.663
188.711
186.945
185.319
183.811
182.417
181.13
179.939
178.832
177.803
224.68
217.537
211.622
206.74
202.735
199.444
196.624
194.087
191.782
189.706
187.836
186.134
184.574
183.141
181.819
180.594
179.456
178.396
228.087
218.768
212.602
207.913
203.906
200.461
197.474
194.827
192.465
190.352
188.449
186.716
185.124
183.657
182.305
181.06
179.911
178.848
224.366
218.532
212.986
208.428
204.493
201.121
198.168
195.501
193.084
190.904
188.937
187.154
185.529
184.041
182.676
181.418
180.256
179.18
222.49
217.924
213.15
208.759
204.879
201.499
198.498
195.795
193.373
191.198
189.232
187.446
185.818
184.326
182.951
181.678
180.498
179.406
222.761
217.642
213.056
208.879
205.119
201.791
198.814
196.113
193.669
191.464
189.468
187.656
186.007
184.504
183.125
181.855
180.677
179.583
222.087
217.218
212.995
208.964
205.257
201.957
198.989
196.274
193.809
191.589
189.588
187.781
186.141
184.645
183.264
181.982
180.787
179.679
220.088
216.835
212.856
208.991
205.346
202.04
199.064
196.359
193.909
191.695
189.689
187.869
186.221
184.724
183.349
182.07
180.873
179.753
219.156
216.589
212.756
208.97
205.38
202.11
199.149
196.437
193.965
191.733
189.719
187.903
186.265
184.781
183.418
182.146
180.947
179.814
219.441
216.573
212.782
209.018
205.422
202.135
199.169
196.46
193.991
191.758
189.741
187.924
186.29
184.812
183.451
182.177
180.97
179.829
155.582
155.554
155.49
155.394
155.272
155.116
154.931
154.738
154.556
154.402
154.282
154.185
154.093
153.995
153.9
153.825
153.78
153.77
153.79
153.838
153.911
154.005
154.117
154.244
154.381
154.525
154.675
154.832
155.001
155.186
155.397
155.649
155.956
156.339
156.845
157.48
158.273
159.244
160.267
161.381
162.243
162.252
161.418
160.355
159.656
159.075
158.337
157.692
157.316
157.182
156.999
156.649
156.227
155.69
155.194
154.419
153.439
152.809
152.246
151.256
149.72
147.837
145.755
143.589
141.412
139.26
137.143
135.054
132.976
130.888
128.766
126.588
124.334
121.985
119.527
116.948
114.241
111.401
108.432
105.34
102.14
98.8521
95.5063
92.1405
88.8024
85.549
82.4469
79.571
77.0023
74.8256
73.1254
71.9807
71.4619
71.628
72.5226
74.1636
76.5393
79.6146
83.3306
87.6066
92.3432
97.4274
102.738
108.151
113.548
118.815
123.856
128.585
132.935
136.854
140.3
143.244
145.668
147.56
148.919
149.754
150.082
149.932
149.346
148.37
147.057
145.459
143.628
141.612
139.455
137.195
134.866
132.499
130.122
127.768
125.466
123.249
121.15
119.202
117.433
115.866
114.513
113.372
112.43
111.661
111.036
110.52
110.079
109.68
109.293
108.891
108.457
107.976
107.441
106.846
106.19
105.475
104.703
103.872
102.983
102.042
101.06
100.058
99.056
98.0661
97.0815
96.0858
95.0655
94.0163
92.9413
91.8479
90.7452
89.6414
88.5435
87.456
86.381
85.3156
84.2565
83.1979
82.141
81.083
80.0355
78.9894
77.9716
76.9394
155.685
155.658
155.574
155.439
155.263
155.057
154.829
154.593
154.367
154.17
154.018
153.898
153.776
153.638
153.504
153.408
153.369
153.386
153.444
153.534
153.646
153.774
153.916
154.065
154.218
154.373
154.528
154.687
154.853
155.029
155.236
155.469
155.747
156.102
156.498
156.987
157.573
158.274
159.067
159.857
160.69
160.778
160.159
159.968
159.791
158.91
157.823
157.046
156.624
156.573
156.656
156.64
156.394
155.761
155.079
154.531
153.67
152.721
151.831
150.603
148.987
147.107
145.088
143.015
140.942
138.892
136.868
134.86
132.849
130.815
128.734
126.585
124.349
122.008
119.549
116.961
114.237
111.375
108.377
105.251
102.011
98.6784
95.2835
91.8647
88.4701
85.1581
81.9966
79.0622
76.4383
74.212
72.4704
71.2965
70.7631
70.9279
71.8271
73.4763
75.869
78.9706
82.7211
87.0381
91.8206
96.9537
102.314
107.777
113.221
118.532
123.612
128.376
132.757
136.704
140.176
143.147
145.596
147.514
148.898
149.754
150.101
149.966
149.39
148.42
147.109
145.509
143.673
141.649
139.481
137.207
134.862
132.478
130.087
127.719
125.404
123.175
121.067
119.111
117.339
115.773
114.424
113.29
112.357
111.599
110.985
110.478
110.046
109.655
109.274
108.877
108.444
107.965
107.432
106.841
106.19
105.476
104.7
103.864
102.973
102.035
101.058
100.059
99.0567
98.0634
97.0747
96.0772
95.0585
94.0125
92.9402
91.848
90.7455
89.6417
88.5437
87.4559
86.3804
85.3143
84.254
83.1932
82.1334
81.0708
80.018
78.9638
77.9348
76.8849
155.856
155.8
155.659
155.44
155.175
154.905
154.652
154.402
154.129
153.85
153.635
153.499
153.385
153.272
153.176
153.116
153.097
153.117
153.174
153.264
153.381
153.519
153.673
153.836
154.002
154.168
154.334
154.5
154.67
154.853
155.06
155.296
155.577
155.905
156.264
156.697
157.169
157.646
158.167
158.64
159.091
159.253
159.161
159.227
158.863
158.037
157.287
156.614
156.101
156.077
156.527
156.94
156.998
156.6
155.773
154.871
153.804
152.488
151.047
149.453
147.726
145.893
144.005
142.097
140.194
138.306
136.428
134.547
132.644
130.697
128.683
126.584
124.379
122.054
119.596
116.996
114.249
111.352
108.309
105.128
101.824
98.4183
94.9406
91.4306
87.9376
84.5216
81.2529
78.211
75.4831
73.1603
71.334
70.0911
69.5078
69.6428
70.5335
72.1954
74.6196
77.7695
81.5827
85.9738
90.8388
96.0599
101.511
107.063
112.593
117.983
123.134
127.96
132.396
136.392
139.913
142.932
145.43
147.397
148.829
149.729
150.112
150.006
149.45
148.49
147.181
145.577
143.731
141.691
139.502
137.205
134.835
132.426
130.008
127.614
125.274
123.023
120.897
118.93
117.152
115.589
114.251
113.135
112.223
111.488
110.894
110.407
109.99
109.612
109.242
108.853
108.426
107.949
107.416
106.822
106.166
105.451
104.677
103.849
102.966
102.032
101.058
100.063
99.0654
98.0716
97.0763
96.0682
95.0401
93.9907
92.922
91.8382
90.745
89.6486
88.5552
87.4689
86.3915
85.3207
84.2537
83.1855
82.1175
81.0466
79.9818
78.9138
77.8585
76.7782
155.921
155.742
155.462
155.135
154.784
154.477
154.252
154.047
153.824
153.606
153.398
153.181
152.961
152.779
152.661
152.604
152.595
152.622
152.679
152.764
152.877
153.016
153.177
153.353
153.54
153.732
153.927
154.124
154.328
154.547
154.793
155.077
155.408
155.784
156.201
156.664
157.132
157.58
158.026
158.383
158.651
158.802
158.797
158.696
158.266
157.628
157.093
156.602
156.352
156.608
157.329
157.995
158.286
157.975
157.043
155.617
153.919
152.074
150.21
148.361
146.541
144.741
142.958
141.195
139.448
137.715
135.984
134.235
132.447
130.595
128.656
126.61
124.439
122.13
119.671
117.056
114.278
111.336
108.234
104.98
101.589
98.0819
94.4898
90.8529
87.2221
83.66
80.2402
77.0464
74.1705
71.7089
69.7581
68.4098
67.7443
67.824
68.6894
70.3564
72.8143
76.0233
79.9169
84.4056
89.381
94.7214
100.297
105.973
111.622
117.123
122.372
127.283
131.793
135.857
139.442
142.527
145.096
147.135
148.637
149.602
150.041
149.979
149.454
148.515
147.215
145.61
143.755
141.7
139.49
137.165
134.763
132.32
129.869
127.441
125.07
122.792
120.644
118.662
116.881
115.324
114.004
112.916
112.037
111.336
110.774
110.314
109.92
109.562
109.209
108.833
108.414
107.94
107.406
106.809
106.147
105.426
104.65
103.823
102.945
102.02
101.056
100.067
99.0701
98.0709
97.0672
96.052
95.0215
93.9753
92.9137
91.8378
90.7513
89.6595
88.5676
87.4794
86.3974
85.3204
84.2465
83.1713
82.0949
81.0144
79.9351
78.8501
77.7647
76.6506
156.186
155.972
155.696
155.372
155.005
154.66
154.315
153.936
153.616
153.414
153.249
153.03
152.744
152.438
152.16
151.938
151.782
151.693
151.665
151.693
151.776
151.908
152.085
152.297
152.538
152.798
153.07
153.351
153.644
153.959
154.31
154.71
155.167
155.679
156.236
156.814
157.376
157.903
158.376
158.714
158.904
158.964
158.855
158.596
158.183
157.716
157.386
157.224
157.377
157.883
158.563
159.231
159.675
159.395
158.119
156.082
153.815
151.555
149.423
147.428
145.559
143.787
142.084
140.432
138.813
137.214
135.614
133.989
132.311
130.55
128.682
126.685
124.544
122.247
119.783
117.146
114.329
111.332
108.158
104.814
101.314
97.6795
93.9411
90.1394
86.3265
82.5669
78.9377
75.5277
72.4351
69.7641
67.6196
66.1017
65.2985
65.2808
66.0952
67.7583
70.2553
73.5409
77.5416
82.161
87.2847
92.7857
98.5286
104.374
110.187
115.838
121.219
126.243
130.85
134.999
138.667
141.84
144.502
146.636
148.228
149.273
149.777
149.766
149.28
148.367
147.084
145.486
143.63
141.566
139.344
137.003
134.581
132.112
129.632
127.174
124.775
122.471
120.303
118.309
116.527
114.984
113.691
112.64
111.805
111.148
110.625
110.198
109.832
109.496
109.163
108.804
108.398
107.933
107.402
106.804
106.136
105.405
104.621
103.793
102.921
102.004
101.047
100.063
99.0653
98.065
97.0602
96.0436
95.0116
93.9656
92.9069
91.8356
90.7536
89.6649
88.5741
87.4847
86.3993
85.3177
84.2378
83.1558
82.0706
80.9798
79.8857
78.7827
77.6698
76.5252
157.109
156.934
156.641
156.254
155.866
155.518
155.051
154.42
153.783
153.249
152.807
152.388
151.944
151.479
151.016
150.588
150.222
149.938
149.749
149.66
149.674
149.786
149.988
150.269
150.613
151.004
151.428
151.873
152.341
152.839
153.386
153.999
154.685
155.434
156.22
157.008
157.76
158.435
158.98
159.329
159.45
159.353
159.063
158.657
158.22
157.807
157.531
157.491
157.79
158.368
159.069
159.742
160.105
159.783
158.296
155.879
153.317
150.872
148.643
146.621
144.77
143.049
141.418
139.856
138.339
136.85
135.362
133.844
132.263
130.583
128.775
126.821
124.704
122.413
119.938
117.271
114.406
111.342
108.077
104.619
100.978
97.1749
93.2373
89.2057
85.1335
81.0888
77.1555
73.432
70.0289
67.0639
64.6561
62.9182
61.9493
61.8275
62.6024
64.2884
66.8625
70.2691
74.4241
79.2212
84.5386
90.2443
96.1985
102.257
108.274
114.114
119.658
124.816
129.53
133.771
137.528
140.796
143.564
145.814
147.521
148.67
149.261
149.313
148.865
147.974
146.702
145.112
143.261
141.198
138.97
136.621
134.192
131.717
129.23
126.765
124.358
122.048
119.878
117.891
116.125
114.609
113.355
112.354
111.576
110.972
110.493
110.1
109.759
109.443
109.123
108.772
108.371
107.913
107.392
106.8
106.133
105.396
104.604
103.771
102.898
101.985
101.033
100.054
99.0604
98.0608
97.0542
96.0344
94.9995
93.9532
92.8978
91.8318
90.7547
89.6692
88.5797
87.4896
86.4013
85.3149
84.2288
83.1396
82.0455
80.9441
79.8356
78.7151
77.5783
76.4089
158.396
158.264
157.975
157.476
156.87
156.289
155.638
154.85
153.965
153.033
152.11
151.213
150.339
149.489
148.672
147.913
147.239
146.683
146.271
146.021
145.944
146.037
146.291
146.691
147.212
147.832
148.524
149.27
150.061
150.904
151.81
152.792
153.844
154.943
156.045
157.106
158.079
158.925
159.591
159.982
160.038
159.796
159.356
158.784
158.16
157.554
157.094
156.924
157.134
157.635
158.334
159.033
159.26
158.826
157.382
154.975
152.442
150.061
147.903
145.96
144.18
142.524
140.958
139.467
138.03
136.628
135.233
133.807
132.308
130.696
128.939
127.017
124.914
122.619
120.122
117.411
114.48
111.321
107.932
104.314
100.476
96.4355
92.2204
87.8735
83.4539
79.0386
74.7237
70.6223
66.8607
63.5731
60.8933
58.9463
57.8397
57.6539
58.4351
60.1915
62.8912
66.4655
70.8161
75.8254
81.3644
87.2981
93.4862
99.7816
106.031
112.085
117.811
123.111
127.929
132.247
136.072
139.414
142.275
144.636
146.465
147.733
148.429
148.564
148.175
147.315
146.051
144.455
142.595
140.535
138.321
135.988
133.571
131.107
128.635
126.19
123.806
121.521
119.378
117.421
115.693
114.226
113.035
112.101
111.386
110.839
110.406
110.045
109.725
109.424
109.118
108.776
108.373
107.903
107.376
106.79
106.129
105.391
104.592
103.751
102.876
101.965
101.019
100.044
99.0528
98.0522
97.044
96.0238
94.9895
93.9442
92.891
91.8289
90.7555
89.6722
88.5833
87.4925
86.4018
85.3109
84.2185
83.1217
82.0187
80.907
79.7852
78.6487
77.4919
76.3023
159.666
159.447
159.045
158.447
157.652
156.743
155.724
154.59
153.346
151.992
150.56
149.087
147.611
146.169
144.795
143.528
142.408
141.473
140.758
140.29
140.086
140.149
140.475
141.048
141.84
142.821
143.954
145.209
146.562
147.998
149.505
151.061
152.638
154.19
155.657
156.977
158.117
159.077
159.82
160.232
160.225
159.887
159.369
158.732
157.977
157.156
156.426
155.963
155.861
156.093
156.669
157.295
157.388
156.953
155.773
153.679
151.417
149.269
147.279
145.462
143.763
142.166
140.655
139.224
137.857
136.533
135.219
133.872
132.444
130.889
129.171
127.269
125.167
122.852
120.31
117.53
114.498
111.205
107.642
103.81
99.715
95.3751
90.823
86.1079
81.2982
76.4826
71.77
67.2878
63.1769
59.5844
56.6553
54.5231
53.3
53.068
53.873
55.7196
58.5662
62.3287
66.8919
72.1243
77.8902
84.0556
90.4855
97.0355
103.546
109.848
115.786
121.247
126.169
130.545
134.405
137.786
140.706
143.151
145.082
146.457
147.254
147.478
147.162
146.355
145.121
143.53
141.656
139.572
137.344
135.025
132.65
130.242
127.828
125.438
123.109
120.88
118.793
116.894
115.23
113.831
112.711
111.857
111.227
110.756
110.381
110.054
109.748
109.449
109.145
108.805
108.399
107.921
107.382
106.789
106.127
105.389
104.586
103.738
102.858
101.945
101.002
100.032
99.0425
98.0425
97.0348
96.0165
94.9843
93.9399
92.8871
91.8265
90.7555
89.6739
88.5852
87.4933
86.4001
85.3049
84.2065
83.1024
81.991
80.8695
79.7356
78.5848
77.4111
76.2045
160.373
160.088
159.532
158.74
157.703
156.446
154.987
153.352
151.564
149.632
147.582
145.447
143.276
141.13
139.07
137.16
135.459
134.023
132.902
132.138
131.763
131.795
132.235
133.067
134.257
135.762
137.529
139.507
141.645
143.891
146.189
148.483
150.714
152.809
154.678
156.249
157.512
158.49
159.158
159.459
159.422
159.167
158.732
158.157
157.425
156.603
155.816
155.175
154.781
154.691
154.95
155.27
155.254
155.036
154.232
152.496
150.546
148.644
146.818
145.106
143.471
141.923
140.465
139.095
137.797
136.546
135.306
134.032
132.669
131.165
129.479
127.584
125.464
123.103
120.487
117.601
114.43
110.961
107.185
103.1
98.715
94.0523
89.1497
84.0639
78.8717
73.6701
68.5772
63.73
59.2791
55.3807
52.1874
49.8402
48.4609
48.1436
48.9437
50.8663
53.8586
57.8154
62.5962
68.0491
74.0307
80.4139
87.0802
93.9005
100.714
107.327
113.546
119.222
124.278
128.717
132.595
135.986
138.932
141.428
143.425
144.873
145.741
146.033
145.781
145.034
143.853
142.303
140.45
138.364
136.117
133.781
131.415
129.056
126.727
124.446
122.23
120.109
118.124
116.323
114.752
113.452
112.437
111.684
111.138
110.734
110.408
110.114
109.825
109.53
109.22
108.874
108.461
107.967
107.408
106.801
106.135
105.396
104.587
103.732
102.844
101.928
100.985
100.017
99.032
98.0342
97.0275
96.0106
94.9809
93.9383
92.8861
91.8259
90.7561
89.6757
88.5868
87.4931
86.3968
85.2973
84.1932
83.0823
81.9628
80.8319
79.687
78.5234
77.3354
76.1143
159.981
159.624
158.928
157.923
156.612
155.004
153.107
150.94
148.534
145.918
143.132
140.222
137.251
134.292
131.427
128.742
126.325
124.263
122.638
121.521
120.966
121.002
121.632
122.833
124.557
126.736
129.289
132.128
135.161
138.297
141.45
144.539
147.478
150.175
152.535
154.496
156.039
157.163
157.871
158.221
158.336
158.242
157.864
157.221
156.349
155.389
154.552
153.945
153.595
153.473
153.513
153.507
153.467
153.62
153.189
151.716
150.019
148.263
146.536
144.881
143.291
141.792
140.388
139.076
137.839
136.651
135.478
134.271
132.973
131.521
129.862
127.964
125.806
123.372
120.652
117.629
114.29
110.623
106.621
102.281
97.612
92.64
87.4076
81.9763
76.4266
70.8583
65.3918
60.1677
55.3428
51.0823
47.552
44.9107
43.303
42.8493
43.6213
45.6247
48.788
52.9698
57.9862
63.6509
69.8085
76.3477
83.1872
90.2413
97.3702
104.358
110.952
116.937
122.195
126.73
130.633
134.025
136.98
139.5
141.532
143.013
143.913
144.238
144.024
143.323
142.191
140.694
138.895
136.858
134.642
132.314
129.952
127.626
125.373
123.211
121.148
119.197
117.382
115.743
114.326
113.16
112.251
111.587
111.127
110.798
110.526
110.259
109.971
109.657
109.322
108.958
108.537
108.034
107.459
106.832
106.153
105.408
104.595
103.733
102.838
101.917
100.971
100.005
99.0222
98.0267
97.0212
96.0059
94.9786
93.9384
92.8869
91.8266
90.7571
89.6771
88.5878
87.4924
86.3929
85.2891
84.1794
83.062
81.9347
80.7949
79.6399
78.4649
77.2647
76.031
158.289
157.883
157.072
155.877
154.305
152.361
150.043
147.356
144.321
140.972
137.363
133.559
129.643
125.711
121.875
118.257
114.991
112.206
110.018
108.525
107.798
107.879
108.774
110.454
112.854
115.875
119.392
123.258
127.32
131.439
135.509
139.445
143.157
146.549
149.542
152.083
154.136
155.675
156.724
157.363
157.674
157.669
157.24
156.336
155.101
153.704
152.499
151.728
151.464
151.57
151.786
151.896
152.098
152.507
152.287
151.247
149.795
148.102
146.43
144.803
143.246
141.786
140.421
139.147
137.952
136.815
135.699
134.56
133.334
131.942
130.313
128.403
126.19
123.663
120.816
117.642
114.133
110.278
106.067
101.497
96.5766
91.33
85.801
80.0514
74.1589
68.2195
62.3507
56.6962
51.4253
46.7252
42.7901
39.8097
37.9586
37.3834
38.1721
40.3271
43.747
48.2328
53.5316
59.4005
65.6626
72.2276
79.0747
86.2024
93.5429
100.888
107.913
114.297
119.839
124.518
128.462
131.851
134.808
137.343
139.386
140.866
141.755
142.075
141.875
141.207
140.126
138.687
136.949
134.975
132.83
130.575
128.274
126.002
123.829
121.794
119.905
118.164
116.576
115.159
113.938
112.936
112.169
111.617
111.228
110.934
110.678
110.422
110.14
109.823
109.468
109.072
108.619
108.096
107.508
106.869
106.18
105.426
104.608
103.74
102.838
101.911
100.961
99.9943
99.0133
98.0203
97.0167
96.0029
94.9773
93.9387
92.8877
91.8269
90.7572
89.6777
88.5884
87.4915
86.3889
85.2807
84.1656
83.0418
81.9073
80.7593
79.595
78.4097
77.1986
75.9541
155.554
155.121
154.235
152.896
151.099
148.835
146.09
142.856
139.15
135.005
130.486
125.675
120.682
115.642
110.717
106.088
101.933
98.4156
95.6708
93.8034
92.8987
93.0268
94.2154
96.4418
99.6303
103.651
108.324
113.431
118.728
123.989
129.064
133.9
138.463
142.673
146.429
149.644
152.274
154.325
155.83
156.803
157.294
157.362
156.913
155.836
154.235
152.346
150.547
149.207
148.624
148.756
149.263
149.83
150.406
151.018
151.205
150.857
149.618
148.031
146.414
144.807
143.269
141.825
140.477
139.226
138.067
136.975
135.919
134.855
133.716
132.405
130.821
128.899
126.622
123.99
121.008
117.683
114.019
110.013
105.648
100.905
95.7812
90.2967
84.494
78.4313
72.1818
65.8381
59.5206
53.3869
47.634
42.4845
38.1645
34.8888
32.8535
32.2219
33.1056
35.5118
39.304
44.2052
49.8651
55.9572
62.2633
68.7081
75.3383
82.2686
89.5673
97.0999
104.498
111.31
117.195
122.058
126.049
129.422
132.363
134.896
136.933
138.386
139.234
139.518
139.302
138.647
137.611
136.244
134.595
132.711
130.653
128.494
126.31
124.164
122.12
120.231
118.528
117.017
115.687
114.532
113.553
112.76
112.149
111.7
111.375
111.122
110.885
110.625
110.323
109.98
109.604
109.189
108.713
108.166
107.558
106.904
106.204
105.444
104.622
103.75
102.843
101.91
100.956
99.9874
99.0067
98.0155
97.0137
96.0009
94.9763
93.9385
92.8879
91.8267
90.7565
89.6772
88.5879
87.4898
86.3845
85.2724
84.1522
83.0225
81.8811
80.7254
79.5526
78.3581
77.1373
75.8834
152.49
152.035
151.083
149.613
147.597
145.005
141.805
137.989
133.572
128.598
123.14
117.303
111.229
105.102
99.1383
93.5655
88.5901
84.3793
81.0683
78.7824
77.6458
77.7668
79.2005
81.934
85.8885
90.9187
96.8114
103.292
110.034
116.661
122.858
128.544
133.854
138.864
143.472
147.489
150.807
153.447
155.46
156.876
157.718
157.954
157.625
156.63
154.857
152.581
150.116
147.975
146.601
146.201
146.624
147.571
148.635
149.707
150.522
150.509
149.421
147.93
146.334
144.726
143.186
141.749
140.423
139.206
138.094
137.069
136.096
135.129
134.097
132.894
131.378
129.454
127.106
124.363
121.251
117.803
114.039
109.947
105.493
100.636
95.3496
89.6438
83.5597
77.1606
70.5268
63.7615
56.999
50.4181
44.2438
38.7241
34.0977
30.582
28.3823
27.6951
28.6837
31.3873
35.6433
41.0792
47.2125
53.6007
59.9619
66.2189
72.4727
78.9537
85.9034
93.3382
100.918
108.083
114.318
119.387
123.425
126.762
129.654
132.147
134.137
135.528
136.312
136.545
136.301
135.645
134.634
133.323
131.768
130.01
128.086
126.057
124.01
122.033
120.188
118.513
117.032
115.761
114.697
113.821
113.112
112.55
112.121
111.802
111.553
111.327
111.087
110.81
110.488
110.128
109.735
109.299
108.798
108.227
107.598
106.929
106.22
105.456
104.632
103.759
102.849
101.913
100.956
99.9844
99.0028
98.0122
97.0116
95.9998
94.9757
93.9384
92.8879
91.8261
90.7553
89.6757
88.5863
87.4872
86.3797
85.2641
84.1394
83.0042
81.8565
80.6937
79.513
78.3102
77.0808
75.8188
149.991
149.496
148.455
146.834
144.583
141.652
138.001
133.622
128.539
122.802
116.495
109.737
102.704
95.621
88.7511
82.352
76.6419
71.7957
67.9708
65.3308
64.0279
64.1647
65.7876
68.8817
73.3821
79.168
86.0414
93.7194
101.865
110.027
117.61
124.252
130.145
135.688
141.002
145.871
150.019
153.364
155.971
157.928
159.239
159.856
159.888
159.321
157.921
155.77
153.137
150.465
148.372
147.32
147.331
148.126
149.273
150.456
151.234
150.737
149.463
147.857
146.161
144.478
142.882
141.417
140.116
138.974
137.963
137.054
136.208
135.377
134.485
133.414
131.999
130.098
127.679
124.821
121.593
118.059
114.262
110.17
105.702
100.771
95.3276
89.3785
82.9827
76.2287
69.2253
62.097
54.9875
48.0797
41.6021
35.7999
30.8961
27.0926
24.6103
23.7179
24.6823
27.6311
32.4077
38.5189
45.2867
52.106
58.6179
64.7381
70.6013
76.5215
82.904
89.9582
97.4545
104.803
111.318
116.577
120.652
123.932
126.746
129.149
131.033
132.313
133.004
133.175
132.896
132.223
131.214
129.938
128.458
126.817
125.053
123.21
121.358
119.587
117.977
116.569
115.374
114.39
113.607
113.007
112.562
112.239
112.007
111.83
111.664
111.475
111.246
110.964
110.625
110.242
109.829
109.379
108.865
108.275
107.627
106.943
106.225
105.459
104.636
103.764
102.855
101.917
100.958
99.985
99.002
98.0111
97.0109
95.9996
94.9757
93.9385
92.888
91.8258
90.7542
89.6741
88.5844
87.4844
86.3748
85.256
84.1272
82.987
81.8335
80.6642
79.4764
78.2661
77.029
75.7597
148.93
148.367
147.195
145.385
142.882
139.629
135.584
130.736
125.112
118.765
111.781
104.292
96.4978
88.6658
81.1015
74.0972
67.8945
62.6861
58.6381
55.9011
54.5925
54.7731
56.4864
59.74
64.4885
70.6427
78.0537
86.4293
95.4274
104.746
113.738
121.52
127.957
133.748
139.435
144.957
149.908
153.992
157.202
159.674
161.5
162.739
163.381
163.449
162.946
161.795
160.079
157.914
155.867
154.46
153.836
153.788
153.946
153.831
153.168
151.718
149.934
148.006
146.057
144.176
142.428
140.856
139.518
138.441
137.582
136.876
136.245
135.614
134.897
133.98
132.699
130.87
128.416
125.447
122.115
118.524
114.727
110.672
106.224
101.242
95.6399
89.4333
82.7219
75.6488
68.3698
61.0236
53.7339
46.65
39.9707
33.9131
28.6648
24.4023
21.38
19.9914
20.6911
23.7886
29.1729
36.1676
43.7765
51.1633
57.9132
63.98
69.536
74.9371
80.7015
87.2117
94.3912
101.708
108.373
113.757
117.833
121.033
123.736
126.002
127.723
128.847
129.421
129.516
129.184
128.459
127.398
126.098
124.653
123.114
121.507
119.872
118.273
116.784
115.469
114.373
113.506
112.853
112.386
112.076
111.892
111.796
111.75
111.715
111.649
111.519
111.32
111.049
110.709
110.317
109.893
109.433
108.909
108.307
107.644
106.946
106.219
105.452
104.633
103.765
102.858
101.921
100.963
99.9884
99.0042
98.0123
97.0118
96.0005
94.9765
93.9391
92.8885
91.8261
90.7539
89.6729
88.5826
87.4816
86.3701
85.2482
84.1156
82.9709
81.8121
80.637
79.4427
78.2257
76.9816
75.7058
149.977
149.261
147.879
145.837
143.087
139.569
135.231
130.057
124.073
117.332
109.92
101.975
93.7122
85.4248
77.4551
70.1305
63.7091
58.3731
54.2654
51.507
50.172
50.3073
51.9887
55.2745
60.1327
66.4413
74.0817
82.7986
92.1154
101.783
111.557
120.396
127.408
133.214
138.94
144.853
150.446
155.205
158.993
161.934
164.231
166.052
167.357
168.14
168.589
168.714
168.44
167.651
166.391
164.904
163.422
161.864
160.052
157.941
155.628
153.263
150.849
148.455
146.12
143.914
141.907
140.157
138.721
137.657
136.948
136.476
136.133
135.798
135.329
134.601
133.477
131.781
129.381
126.339
122.888
119.222
115.413
111.384
106.955
101.935
96.2019
89.7741
82.8017
75.5054
68.0965
60.7067
53.4051
46.2755
39.4659
33.1491
27.4555
22.5187
18.6527
16.4572
16.6763
19.881
26.0312
34.1806
42.843
50.8503
57.7861
63.7591
69.038
73.9983
79.2074
85.1503
91.8801
98.9816
105.636
111.041
115.059
118.147
120.706
122.788
124.297
125.231
125.661
125.643
125.2
124.35
123.153
121.743
120.257
118.769
117.31
115.911
114.621
113.495
112.567
111.86
111.377
111.099
110.985
110.994
111.084
111.217
111.356
111.465
111.505
111.45
111.299
111.061
110.741
110.356
109.929
109.462
108.933
108.326
107.653
106.943
106.207
105.439
104.624
103.761
102.858
101.924
100.967
99.9932
99.0085
98.0156
97.0143
96.0025
94.9783
93.9406
92.8897
91.8271
90.7544
89.6727
88.5813
87.4791
86.3657
85.241
84.1048
82.956
81.7925
80.6121
79.4119
78.1888
76.9386
75.6568
153.462
152.494
150.788
148.476
145.537
141.885
137.44
132.169
126.094
119.269
111.781
103.761
95.4151
87.032
78.9625
71.5546
65.0808
59.7136
55.575
52.7586
51.3168
51.3196
52.8821
56.0901
60.9307
67.2353
74.8322
83.5419
92.8575
102.329
111.891
120.902
128.222
134.001
139.602
145.661
151.62
156.764
160.895
164.181
166.83
168.968
170.736
172.197
173.299
174.131
174.714
174.959
174.583
173.279
170.951
167.854
164.42
161.049
157.887
154.899
151.946
149.065
146.296
143.712
141.4
139.449
137.927
136.869
136.253
135.99
135.924
135.864
135.66
135.162
134.222
132.701
130.462
127.468
123.916
120.111
116.232
112.217
107.84
102.856
97.1011
90.5868
83.5038
76.1307
68.7145
61.3893
54.1904
47.1406
40.3134
33.7896
27.5981
21.8521
17.0246
13.9926
13.758
17.0799
23.9997
33.325
43.0198
51.5181
58.438
64.1443
69.0754
73.6374
78.4008
83.8637
90.1308
96.8995
103.383
108.675
112.561
115.502
117.884
119.732
120.985
121.692
121.928
121.709
121.037
119.934
118.481
116.859
115.263
113.779
112.433
111.279
110.365
109.7
109.264
109.04
109.012
109.155
109.425
109.773
110.154
110.527
110.855
111.109
111.259
111.287
111.198
111.005
110.721
110.36
109.942
109.473
108.941
108.332
107.655
106.937
106.193
105.422
104.61
103.753
102.855
101.925
100.97
99.9981
99.0138
98.0202
97.0179
96.0053
94.9806
93.9425
92.8914
91.8286
90.7555
89.6729
88.5804
87.4768
86.3614
85.2342
84.0949
82.9423
81.7746
80.5895
79.384
78.1554
76.8995
75.6124
158.222
156.891
154.796
152.277
149.296
145.706
141.382
136.268
130.374
123.752
116.489
108.713
100.61
92.4424
84.5321
77.2164
70.774
65.3809
61.1539
58.2102
56.6615
56.5942
58.0761
61.1459
65.793
71.8781
79.1804
87.4623
96.3315
105.432
114.509
122.88
129.752
135.392
140.976
147.08
153.128
158.36
162.563
165.935
168.731
171.094
173.081
174.775
176.206
177.322
178.149
178.652
178.56
177.462
175.008
171.289
167.067
163.115
159.58
156.232
152.932
149.703
146.594
143.699
141.133
139.011
137.42
136.389
135.873
135.739
135.809
135.925
135.894
135.545
134.757
133.413
131.387
128.586
125.07
121.147
117.138
113.095
108.795
103.944
98.3292
91.9228
84.8999
77.5535
70.1752
62.9559
55.9355
49.059
42.2759
35.5478
28.866
22.4749
17.0898
13.7158
13.3299
16.7
23.9966
33.9967
44.2949
52.9727
59.6674
64.9865
69.5322
73.7433
78.1759
83.2859
89.1607
95.5679
101.771
106.835
110.529
113.298
115.468