/*--------------------------------*- C++ -*----------------------------------*\
  =========                 |
  \\      /  F ield         | OpenFOAM: The Open Source CFD Toolbox
   \\    /   O peration     | Website:  https://openfoam.org
    \\  /    A nd           | Version:  6
     \\/     M anipulation  |
\*---------------------------------------------------------------------------*/
FoamFile
{
    version     2.0;
    format      ascii;
    class       surfaceScalarField;
    location    "0.05";
    object      phi;
}
// * * * * * * * * * * * * * * * * * * * * * * * * * * * * * * * * * * * * * //

dimensions      [0 3 -1 0 0 0 0];

internalField   nonuniform List<scalar> 
24170
(
3.07087e-06
1.38522e-07
2.99809e-06
7.27805e-08
2.90592e-06
9.21722e-08
2.7937e-06
1.12214e-07
2.69575e-06
9.79479e-08
2.62334e-06
7.24158e-08
2.56322e-06
6.01151e-08
2.49713e-06
6.60917e-08
2.41975e-06
7.73853e-08
2.33609e-06
8.3653e-08
2.25613e-06
7.99584e-08
2.18385e-06
7.22866e-08
2.11983e-06
6.40138e-08
2.059e-06
6.08364e-08
1.99757e-06
6.14257e-08
1.92521e-06
7.23644e-08
1.83943e-06
8.57725e-08
1.11995e-07
1.72744e-06
3.44468e-06
1.26132e-07
3.45712e-06
6.03433e-08
3.46866e-06
8.06278e-08
3.46397e-06
1.16901e-07
3.45492e-06
1.07005e-07
3.45682e-06
7.05129e-08
3.47143e-06
4.55002e-08
3.48916e-06
4.83701e-08
3.49813e-06
6.84108e-08
3.49157e-06
9.02134e-08
3.47027e-06
1.01262e-07
3.44104e-06
1.01513e-07
3.41044e-06
9.4617e-08
3.38287e-06
8.84022e-08
3.35772e-06
8.65746e-08
3.33239e-06
9.76982e-08
3.29809e-06
1.20074e-07
1.39164e-07
3.27092e-06
3.62473e-06
1.44154e-07
3.65353e-06
3.15427e-08
3.69031e-06
4.38473e-08
3.72788e-06
7.93287e-08
3.74544e-06
8.94451e-08
3.73794e-06
7.80134e-08
3.71821e-06
6.52323e-08
3.70294e-06
6.36391e-08
3.69934e-06
7.2012e-08
3.70594e-06
8.36172e-08
3.71776e-06
8.94359e-08
3.73244e-06
8.68373e-08
3.748e-06
7.90556e-08
3.76357e-06
7.28367e-08
3.77617e-06
7.39699e-08
3.78444e-06
8.94313e-08
3.7893e-06
1.15216e-07
1.37519e-07
3.79094e-06
3.93652e-06
9.93743e-08
4.00174e-06
-3.36742e-08
4.05159e-06
-6.00125e-09
4.07219e-06
5.87245e-08
4.06565e-06
9.59822e-08
4.04077e-06
1.02894e-07
4.01362e-06
9.23882e-08
3.99727e-06
7.99877e-08
3.99294e-06
7.63376e-08
3.99403e-06
8.25317e-08
3.99279e-06
9.0671e-08
3.98674e-06
9.28883e-08
3.97793e-06
8.78694e-08
3.97075e-06
8.00133e-08
3.96849e-06
7.62291e-08
3.97404e-06
8.38805e-08
3.98851e-06
1.00744e-07
1.22471e-07
4.00356e-06
4.1864e-06
2.18519e-08
4.21559e-06
-6.28588e-08
4.21746e-06
-7.87207e-09
4.21939e-06
5.67905e-08
4.22564e-06
8.97373e-08
4.22845e-06
1.00077e-07
4.22596e-06
9.4886e-08
4.22391e-06
8.20343e-08
4.22849e-06
7.17514e-08
4.24205e-06
6.89759e-08
4.26241e-06
7.03091e-08
4.285e-06
7.02991e-08
4.30456e-06
6.83084e-08
4.31674e-06
6.78332e-08
4.3205e-06
7.24734e-08
4.31889e-06
8.54928e-08
4.31512e-06
1.0451e-07
1.28513e-07
4.30908e-06
4.57193e-06
-3.04802e-09
4.57549e-06
-6.64233e-08
4.57643e-06
-8.81713e-09
4.58563e-06
4.7591e-08
4.59603e-06
7.93415e-08
4.59916e-06
9.69496e-08
4.59273e-06
1.01309e-07
4.58263e-06
9.2141e-08
4.57798e-06
7.63968e-08
4.58389e-06
6.30701e-08
4.59805e-06
5.61496e-08
4.61289e-06
5.54528e-08
4.62091e-06
6.0289e-08
4.61825e-06
7.04938e-08
4.60646e-06
8.42698e-08
4.59037e-06
1.01579e-07
4.57486e-06
1.20023e-07
1.4068e-07
4.56269e-06
4.89068e-06
-5.94806e-08
4.91761e-06
-9.33449e-08
4.91311e-06
-4.32289e-09
4.91221e-06
4.84885e-08
4.9164e-06
7.51545e-08
4.91463e-06
9.87213e-08
4.90195e-06
1.1399e-07
4.88193e-06
1.12159e-07
4.86239e-06
9.59375e-08
4.85023e-06
7.52278e-08
4.84824e-06
5.81383e-08
4.85471e-06
4.8984e-08
4.86586e-06
4.91394e-08
4.8782e-06
5.81506e-08
4.88902e-06
7.3452e-08
4.89788e-06
9.27212e-08
4.90433e-06
1.13572e-07
1.34905e-07
4.91011e-06
5.11823e-06
-7.23554e-08
5.15356e-06
-1.28684e-07
5.18762e-06
-3.8376e-08
5.20886e-06
2.72506e-08
5.21707e-06
6.69392e-08
5.21612e-06
9.96753e-08
5.21269e-06
1.17421e-07
5.21307e-06
1.1177e-07
5.21912e-06
8.98933e-08
5.22807e-06
6.62725e-08
5.2362e-06
5.00093e-08
5.24221e-06
4.29748e-08
5.24797e-06
4.33827e-08
5.25683e-06
4.9294e-08
5.2705e-06
5.97777e-08
5.28872e-06
7.45035e-08
5.30921e-06
9.30811e-08
1.15377e-07
5.32874e-06
5.74099e-06
-1.27787e-07
5.63107e-06
-1.87616e-08
5.57627e-06
1.6421e-08
5.58086e-06
2.26682e-08
5.60868e-06
3.91159e-08
5.6372e-06
7.11552e-08
5.65831e-06
9.63058e-08
5.67017e-06
9.9916e-08
5.67357e-06
8.64901e-08
5.67212e-06
6.77288e-08
5.66998e-06
5.21406e-08
5.66944e-06
4.35198e-08
5.67058e-06
4.22441e-08
5.67216e-06
4.77148e-08
5.67422e-06
5.7718e-08
5.67666e-06
7.2065e-08
5.68152e-06
8.82138e-08
1.06504e-07
5.69039e-06
5.84057e-06
-2.79055e-07
5.88767e-06
-6.58592e-08
5.90232e-06
1.7634e-09
5.94144e-06
-1.64487e-08
5.9938e-06
-1.32459e-08
6.03821e-06
2.67436e-08
6.06501e-06
6.95127e-08
6.07774e-06
8.71804e-08
6.08674e-06
7.74918e-08
6.10023e-06
5.42453e-08
6.11888e-06
3.34839e-08
6.13642e-06
2.59795e-08
6.14485e-06
3.38159e-08
6.13917e-06
5.34001e-08
6.1204e-06
7.6482e-08
6.09468e-06
9.77818e-08
6.07048e-06
1.12422e-07
1.21205e-07
6.05578e-06
6.35417e-06
-1.59326e-07
6.3582e-06
-6.98925e-08
6.36506e-06
-5.09392e-09
6.34597e-06
2.63626e-09
6.33445e-06
-1.7286e-09
6.35659e-06
4.61012e-09
6.40441e-06
2.16911e-08
6.45222e-06
3.93685e-08
6.47985e-06
4.9861e-08
6.48287e-06
5.12303e-08
6.47033e-06
4.60178e-08
6.45626e-06
4.00539e-08
6.45151e-06
3.85641e-08
6.46086e-06
4.40483e-08
6.48185e-06
5.54904e-08
6.51028e-06
6.93502e-08
6.53978e-06
8.29231e-08
9.47527e-08
6.56624e-06
5.83958e-06
-1.1538e-07
5.83401e-06
-6.43166e-08
5.84769e-06
-1.87763e-08
5.84103e-06
9.30127e-09
5.7982e-06
4.11011e-08
5.74585e-06
5.69544e-08
5.71126e-06
5.62861e-08
5.7e-06
5.0629e-08
5.70407e-06
4.57898e-08
5.71526e-06
4.00381e-08
5.73041e-06
3.08648e-08
5.74995e-06
2.0515e-08
5.77519e-06
1.33274e-08
5.80637e-06
1.28703e-08
5.84182e-06
2.00385e-08
5.8782e-06
3.29661e-08
5.91191e-06
4.9214e-08
6.57281e-08
5.94094e-06
7.19365e-06
-6.92887e-08
7.1042e-06
2.51296e-08
7.02162e-06
6.38074e-08
6.98728e-06
4.36429e-08
6.98942e-06
3.89586e-08
7.00383e-06
4.25387e-08
7.01774e-06
4.23776e-08
7.03577e-06
3.25989e-08
7.0686e-06
1.29598e-08
7.11778e-06
-9.13609e-09
7.17197e-06
-2.33242e-08
7.21496e-06
-2.24784e-08
7.23548e-06
-7.19051e-09
7.23206e-06
1.62903e-08
7.21254e-06
3.95594e-08
7.1873e-06
5.82036e-08
7.16685e-06
6.96614e-08
7.6205e-08
7.15637e-06
8.49323e-06
-2.18237e-07
8.4702e-06
4.81611e-08
8.44206e-06
9.1944e-08
8.44512e-06
4.05833e-08
8.48536e-06
-1.27321e-09
8.54868e-06
-2.07842e-08
8.62048e-06
-2.94235e-08
8.68919e-06
-3.61133e-08
8.74565e-06
-4.35009e-08
8.78363e-06
-4.71099e-08
8.80063e-06
-4.03279e-08
8.7989e-06
-2.07469e-08
8.78431e-06
7.39488e-09
8.76342e-06
3.71841e-08
8.74235e-06
6.0629e-08
8.72561e-06
7.49416e-08
8.71664e-06
7.86331e-08
7.42011e-08
8.71864e-06
1.04723e-05
-2.77085e-07
1.05445e-05
-2.40824e-08
1.05373e-05
9.91226e-08
1.04928e-05
8.51129e-08
1.04547e-05
3.6794e-08
1.04484e-05
-1.44716e-08
1.04741e-05
-5.51136e-08
1.05158e-05
-7.78023e-08
1.05563e-05
-8.39698e-08
1.05851e-05
-7.59377e-08
1.05996e-05
-5.482e-08
1.06022e-05
-2.33785e-08
1.05984e-05
1.12262e-08
1.05936e-05
4.20198e-08
1.05917e-05
6.2503e-08
1.05954e-05
7.12631e-08
1.06055e-05
6.84683e-08
5.78143e-08
1.06219e-05
1.26801e-05
-2.34997e-07
1.27268e-05
-7.07559e-08
1.26843e-05
1.41562e-07
1.26705e-05
9.89408e-08
1.27178e-05
-1.04813e-08
1.27754e-05
-7.21395e-08
1.2797e-05
-7.67027e-08
1.27741e-05
-5.49184e-08
1.27275e-05
-3.73271e-08
1.26853e-05
-3.37503e-08
1.26673e-05
-3.68311e-08
1.26797e-05
-3.57418e-08
1.27174e-05
-2.64482e-08
1.27707e-05
-1.12674e-08
1.28289e-05
4.2608e-09
1.28846e-05
1.55823e-08
1.29332e-05
1.97962e-08
1.60455e-08
1.2975e-05
1.51689e-05
-1.02981e-07
1.52402e-05
-1.42067e-07
1.54611e-05
-7.92977e-08
1.56184e-05
-5.83257e-08
1.56536e-05
-4.57269e-08
1.56134e-05
-3.19543e-08
1.55676e-05
-3.08588e-08
1.55538e-05
-4.11389e-08
1.55687e-05
-5.2213e-08
1.55909e-05
-5.59925e-08
1.56044e-05
-5.03215e-08
1.56066e-05
-3.78704e-08
1.56041e-05
-2.40181e-08
1.56066e-05
-1.36921e-08
1.56212e-05
-1.03405e-08
1.56507e-05
-1.39281e-08
1.56946e-05
-2.40981e-08
-3.80255e-08
1.57486e-05
1.88839e-05
1.4649e-07
1.86891e-05
5.26769e-08
1.8708e-05
-9.81775e-08
1.8757e-05
-1.07262e-07
1.87718e-05
-6.05939e-08
1.87888e-05
-4.89659e-08
1.88339e-05
-7.58785e-08
1.88973e-05
-1.04632e-07
1.89546e-05
-1.09478e-07
1.89894e-05
-9.07826e-08
1.90021e-05
-6.30026e-08
1.90032e-05
-3.89419e-08
1.90037e-05
-2.46156e-08
1.90102e-05
-2.01626e-08
1.90235e-05
-2.3627e-08
1.90422e-05
-3.25806e-08
1.90631e-05
-4.50889e-08
-6.03216e-08
1.90854e-05
2.32525e-05
-1.53087e-08
2.32465e-05
5.86879e-08
2.31004e-05
4.79052e-08
2.29559e-05
3.71751e-08
2.29052e-05
-9.85242e-09
2.29335e-05
-7.72896e-08
2.29848e-05
-1.271e-07
2.30257e-05
-1.45614e-07
2.30576e-05
-1.41391e-07
2.30962e-05
-1.29359e-07
2.31523e-05
-1.19043e-07
2.32253e-05
-1.11953e-07
2.33071e-05
-1.0644e-07
2.33881e-05
-1.01192e-07
2.34599e-05
-9.54257e-08
2.35173e-05
-8.99164e-08
2.35572e-05
-8.50505e-08
-8.18416e-08
2.35787e-05
1.69616e-05
4.04292e-07
1.70183e-05
1.95659e-09
1.71134e-05
-4.72052e-08
1.71221e-05
2.8533e-08
1.70496e-05
6.26457e-08
1.69366e-05
3.56879e-08
1.6832e-05
-2.25315e-08
1.67643e-05
-7.78901e-08
1.67338e-05
-1.10872e-07
1.6724e-05
-1.19611e-07
1.67182e-05
-1.13226e-07
1.67096e-05
-1.0336e-07
1.67015e-05
-9.83394e-08
1.67016e-05
-1.01307e-07
1.67161e-05
-1.09881e-07
1.67458e-05
-1.19674e-07
1.67879e-05
-1.2709e-07
-1.3113e-07
1.68372e-05
1.48568e-05
-1.86226e-08
1.48564e-05
2.37475e-09
1.47867e-05
2.24501e-08
1.48179e-05
-2.64827e-09
1.49146e-05
-3.40555e-08
1.49913e-05
-4.09498e-08
1.49962e-05
-2.74219e-08
1.49335e-05
-1.52186e-08
1.48406e-05
-1.80382e-08
1.47554e-05
-3.43214e-08
1.46986e-05
-5.65034e-08
1.46744e-05
-7.90952e-08
1.4676e-05
-9.99313e-08
1.46932e-05
-1.18593e-07
1.47176e-05
-1.34237e-07
1.47433e-05
-1.4541e-07
1.47677e-05
-1.5147e-07
-1.48769e-07
1.47854e-05
1.28627e-05
-9.36876e-08
1.28774e-05
-1.23667e-08
1.2892e-05
7.86897e-09
1.29432e-05
-5.38157e-08
1.29811e-05
-7.19979e-08
1.29766e-05
-3.64658e-08
1.2944e-05
5.24669e-09
1.29082e-05
2.05035e-08
1.28822e-05
8.03974e-09
1.28651e-05
-1.72187e-08
1.28508e-05
-4.22637e-08
1.28343e-05
-6.25584e-08
1.28139e-05
-7.95619e-08
1.27913e-05
-9.60316e-08
1.2771e-05
-1.13883e-07
1.27576e-05
-1.32035e-07
1.27551e-05
-1.48933e-07
-1.6408e-07
1.27704e-05
1.12869e-05
1.35158e-10
1.12992e-05
-2.46518e-08
1.13392e-05
-3.21844e-08
1.13129e-05
-2.75272e-08
1.12472e-05
-6.26363e-09
1.12071e-05
3.58856e-09
1.12248e-05
-1.23856e-08
1.12851e-05
-3.98626e-08
1.13505e-05
-5.72758e-08
1.13872e-05
-5.39594e-08
1.13809e-05
-3.59999e-08
1.13377e-05
-1.93315e-08
1.12756e-05
-1.7496e-08
1.12145e-05
-3.49192e-08
1.11677e-05
-6.70468e-08
1.11401e-05
-1.04453e-07
1.11302e-05
-1.38972e-07
-1.61439e-07
1.11275e-05
9.96721e-06
2.53709e-07
9.88111e-06
6.14575e-08
9.88429e-06
-3.53714e-08
9.90991e-06
-5.31417e-08
9.9247e-06
-2.1061e-08
9.90637e-06
2.1923e-08
9.86291e-06
3.10714e-08
9.82265e-06
3.98658e-10
9.8075e-06
-4.2123e-08
9.82052e-06
-6.69833e-08
9.85005e-06
-6.5526e-08
9.88004e-06
-4.93253e-08
9.89864e-06
-3.60982e-08
9.90152e-06
-3.77916e-08
9.88985e-06
-5.53757e-08
9.86739e-06
-8.20022e-08
9.83747e-06
-1.0905e-07
-1.29324e-07
9.80536e-06
8.48856e-06
1.08762e-07
8.47564e-06
7.43707e-08
8.43752e-06
2.74748e-09
8.41243e-06
-2.80486e-08
8.41804e-06
-2.66669e-08
8.44802e-06
-8.06328e-09
8.47813e-06
9.60799e-10
8.49137e-06
-1.28389e-08
8.48967e-06
-4.04224e-08
8.48568e-06
-6.29906e-08
8.48942e-06
-6.92627e-08
8.5025e-06
-6.24065e-08
8.52018e-06
-5.3785e-08
8.53601e-06
-5.36222e-08
8.54487e-06
-6.42364e-08
8.54416e-06
-8.12865e-08
8.53375e-06
-9.86437e-08
-1.09019e-07
8.51345e-06
7.14728e-06
2.71354e-08
7.29915e-06
-7.74964e-08
7.38037e-06
-7.84751e-08
7.39529e-06
-4.2972e-08
7.39406e-06
-2.54357e-08
7.40642e-06
-2.04197e-08
7.43046e-06
-2.30784e-08
7.4503e-06
-3.26829e-08
7.45546e-06
-4.5581e-08
7.44842e-06
-5.59484e-08
7.43909e-06
-5.99381e-08
7.43502e-06
-5.83301e-08
7.43663e-06
-5.53955e-08
7.43903e-06
-5.60289e-08
7.43681e-06
-6.2016e-08
7.42737e-06
-7.18425e-08
7.41102e-06
-8.22971e-08
-8.93996e-08
7.3914e-06
6.48691e-06
-1.11685e-07
6.49525e-06
-8.58338e-08
6.46256e-06
-4.5786e-08
6.45746e-06
-3.78802e-08
6.47137e-06
-3.9341e-08
6.49201e-06
-4.10621e-08
6.5177e-06
-4.8762e-08
6.54631e-06
-6.12963e-08
6.57182e-06
-7.10877e-08
6.58804e-06
-7.21726e-08
6.59224e-06
-6.41365e-08
6.58566e-06
-5.17526e-08
6.57218e-06
-4.19172e-08
6.55666e-06
-4.05076e-08
6.54267e-06
-4.80241e-08
6.53189e-06
-6.10631e-08
6.52415e-06
-7.45525e-08
-8.19659e-08
6.51671e-06
5.63883e-06
-8.56381e-08
5.64921e-06
-9.6219e-08
5.64479e-06
-4.13607e-08
5.64334e-06
-3.64277e-08
5.64945e-06
-4.54504e-08
5.65592e-06
-4.75332e-08
5.65877e-06
-5.16185e-08
5.65853e-06
-6.10501e-08
5.65699e-06
-6.95547e-08
5.6561e-06
-7.1273e-08
5.6577e-06
-6.57394e-08
5.66306e-06
-5.71194e-08
5.67228e-06
-5.11316e-08
5.68404e-06
-5.22634e-08
5.69584e-06
-5.98245e-08
5.70518e-06
-7.04098e-08
5.70951e-06
-7.88806e-08
-7.92455e-08
5.70679e-06
4.84521e-06
-1.03779e-08
4.8204e-06
-7.14051e-08
4.81789e-06
-3.88525e-08
4.82568e-06
-4.42164e-08
4.84063e-06
-6.03983e-08
4.86406e-06
-7.09666e-08
4.88947e-06
-7.70312e-08
4.90709e-06
-7.86666e-08
4.91284e-06
-7.53031e-08
4.90963e-06
-6.8067e-08
4.90278e-06
-5.88915e-08
4.89597e-06
-5.03019e-08
4.89018e-06
-4.53464e-08
4.88462e-06
-4.67067e-08
4.8787e-06
-5.38971e-08
4.87214e-06
-6.38496e-08
4.86519e-06
-7.19307e-08
-7.41765e-08
4.86012e-06
4.13756e-06
4.06616e-06
4.02731e-06
3.98309e-06
3.92269e-06
3.85173e-06
3.77469e-06
3.69603e-06
3.62072e-06
3.55266e-06
3.49377e-06
3.44346e-06
3.39812e-06
3.35141e-06
3.29751e-06
3.23366e-06
3.16173e-06
3.08756e-06
-3.13026e-08
3.13026e-08
-3.1301e-08
-1.59917e-12
1.44541e-08
-4.57551e-08
1.05701e-07
-9.12474e-08
2.28356e-07
-1.22655e-07
3.49623e-07
-1.21267e-07
4.6528e-07
-1.15657e-07
5.83063e-07
-1.17782e-07
7.18204e-07
-1.35141e-07
8.78354e-07
-1.6015e-07
1.06409e-06
-1.85734e-07
1.27152e-06
-2.07437e-07
1.49093e-06
-2.1941e-07
1.70865e-06
-2.17718e-07
1.91379e-06
-2.05136e-07
2.1024e-06
-1.88607e-07
2.27592e-06
-1.73523e-07
2.4377e-06
-1.6178e-07
2.59081e-06
-1.53107e-07
2.73809e-06
-1.47282e-07
2.88221e-06
-1.44124e-07
3.02468e-06
-1.42467e-07
3.16671e-06
-1.42028e-07
3.30954e-06
-1.42832e-07
3.45275e-06
-1.4321e-07
3.59677e-06
-1.44022e-07
3.74084e-06
-1.44068e-07
3.88113e-06
-1.40294e-07
4.01851e-06
-1.37373e-07
4.14677e-06
-1.2826e-07
4.26069e-06
-1.13927e-07
4.36222e-06
-1.01523e-07
4.4294e-06
-6.71852e-08
4.46507e-06
-3.56674e-08
4.44884e-06
1.62329e-08
4.33844e-06
1.10397e-07
4.16389e-06
1.74553e-07
3.82592e-06
3.37968e-07
3.34903e-06
4.76889e-07
2.7269e-06
6.22129e-07
1.71351e-06
1.01339e-06
7.26612e-07
9.869e-07
2.77626e-08
6.98849e-07
-4.17382e-07
4.45145e-07
-5.44128e-07
1.26746e-07
-7.23422e-07
1.79294e-07
-9.90147e-07
2.66724e-07
-1.12359e-06
1.33448e-07
-9.95093e-07
-1.28501e-07
-5.60292e-07
-4.34801e-07
-4.29863e-08
-5.17306e-07
1.28704e-07
-1.7169e-07
1.67019e-07
-3.83148e-08
4.6203e-07
-2.95012e-07
8.69941e-07
-4.0791e-07
1.06742e-06
-1.97476e-07
9.69509e-07
9.79075e-08
4.31966e-07
5.37543e-07
-3.44727e-07
7.76693e-07
-1.08879e-06
7.44068e-07
-1.74965e-06
6.60859e-07
-2.32033e-06
5.7068e-07
-2.80368e-06
4.8335e-07
-3.20978e-06
4.06095e-07
-3.55177e-06
3.41989e-07
-3.84314e-06
2.91371e-07
-4.09746e-06
2.5432e-07
-4.32623e-06
2.28771e-07
-4.53994e-06
2.13713e-07
-4.74684e-06
2.06897e-07
-4.95385e-06
2.07008e-07
-5.16599e-06
2.12149e-07
-5.38705e-06
2.21054e-07
-5.61939e-06
2.32345e-07
-5.86448e-06
2.45084e-07
-6.12288e-06
2.58398e-07
-6.39446e-06
2.71585e-07
-6.67845e-06
2.83987e-07
-6.97348e-06
2.95034e-07
-7.27769e-06
3.0421e-07
-7.58871e-06
3.11016e-07
-7.90365e-06
3.14939e-07
-8.21909e-06
3.15447e-07
-8.53109e-06
3.11998e-07
-8.83513e-06
3.04042e-07
-9.12618e-06
2.91052e-07
-9.39873e-06
2.72547e-07
-9.64687e-06
2.48134e-07
-9.8644e-06
2.17538e-07
-1.0045e-05
1.80638e-07
-1.01826e-05
1.3757e-07
-1.02713e-05
8.86736e-08
-1.03061e-05
3.48123e-08
-1.02844e-05
-2.17322e-08
-1.02046e-05
-7.97706e-08
-1.00652e-05
-1.39356e-07
-9.86558e-06
-1.99657e-07
-9.60595e-06
-2.59631e-07
-9.28792e-06
-3.18029e-07
-8.91427e-06
-3.73654e-07
-8.48887e-06
-4.25396e-07
-8.01659e-06
-4.72281e-07
-7.50308e-06
-5.13511e-07
-6.95457e-06
-5.48514e-07
-6.37759e-06
-5.76979e-07
-5.7787e-06
-5.98886e-07
-5.16425e-06
-6.14454e-07
-4.5402e-06
-6.24048e-07
-3.91208e-06
-6.28123e-07
-3.28503e-06
-6.2705e-07
-2.66397e-06
-6.21058e-07
-2.05381e-06
-6.10157e-07
-1.4596e-06
-5.94214e-07
-8.86613e-07
-5.72983e-07
-3.40772e-07
-5.45841e-07
1.71619e-07
-5.12391e-07
6.4499e-07
-4.73371e-07
1.07466e-06
-4.29667e-07
1.45654e-06
-3.81882e-07
1.78738e-06
-3.30839e-07
2.06502e-06
-2.77645e-07
2.28853e-06
-2.23508e-07
2.45821e-06
-1.69679e-07
2.57566e-06
-1.17448e-07
2.64357e-06
-6.7913e-08
2.66507e-06
-2.14956e-08
2.64509e-06
1.99719e-08
2.59108e-06
5.40185e-08
2.51089e-06
8.01893e-08
2.41234e-06
9.85458e-08
2.30341e-06
1.08931e-07
2.19217e-06
1.11241e-07
2.08654e-06
1.05624e-07
1.99393e-06
9.26131e-08
1.92074e-06
7.31922e-08
1.872e-06
4.87438e-08
1.85114e-06
2.08523e-08
1.86016e-06
-9.01894e-09
1.89959e-06
-3.94267e-08
1.96847e-06
-6.88798e-08
2.06458e-06
-9.6112e-08
2.18463e-06
-1.20051e-07
2.32447e-06
-1.3984e-07
2.47957e-06
-1.55093e-07
2.64576e-06
-1.6619e-07
2.81994e-06
-1.74187e-07
2.99976e-06
-1.79814e-07
3.18127e-06
-1.81515e-07
3.35528e-06
-1.74012e-07
3.50555e-06
-1.50268e-07
3.61317e-06
-1.0762e-07
3.66612e-06
-5.29469e-08
3.66629e-06
-1.67853e-10
3.62558e-06
4.07074e-08
3.55638e-06
6.91976e-08
3.46959e-06
8.67914e-08
3.37757e-06
9.20212e-08
3.29292e-06
8.46479e-08
3.22287e-06
7.00522e-08
3.1647e-06
5.81711e-08
3.10738e-06
5.73211e-08
3.03875e-06
6.86277e-08
2.95241e-06
8.63416e-08
2.84964e-06
1.02765e-07
2.73694e-06
1.127e-07
2.62248e-06
1.14461e-07
2.51357e-06
1.08915e-07
2.4158e-06
9.77697e-08
2.3324e-06
8.3397e-08
2.26436e-06
6.80363e-08
2.20945e-06
5.49108e-08
2.16396e-06
4.54898e-08
2.12176e-06
4.22018e-08
2.07868e-06
4.30854e-08
2.02791e-06
5.07668e-08
1.96793e-06
5.99804e-08
1.88833e-06
7.95968e-08
1.79018e-06
9.81516e-08
1.64812e-06
1.42055e-07
1.77267e-07
1.47086e-06
1.29322e-07
-9.80192e-08
3.30121e-07
-2.00801e-07
5.62627e-07
-2.78261e-07
7.93618e-07
-3.22238e-07
1.00437e-06
-3.33406e-07
1.20644e-06
-3.23339e-07
1.39849e-06
-3.07705e-07
1.58358e-06
-3.02871e-07
1.75675e-06
-3.08319e-07
1.90295e-06
-3.06352e-07
2.02864e-06
-3.11415e-07
2.1438e-06
-3.22596e-07
2.24494e-06
-3.20554e-07
2.32345e-06
-2.9623e-07
2.37612e-06
-2.57802e-07
2.40748e-06
-2.19972e-07
2.42574e-06
-1.91783e-07
2.43884e-06
-1.74879e-07
2.45333e-06
-1.67596e-07
2.47418e-06
-1.68129e-07
2.50483e-06
-1.74775e-07
2.54798e-06
-1.85613e-07
2.60533e-06
-1.99382e-07
2.67727e-06
-2.14773e-07
2.76375e-06
-2.29695e-07
2.86301e-06
-2.43275e-07
2.97289e-06
-2.53949e-07
3.09257e-06
-2.59973e-07
3.21657e-06
-2.61376e-07
3.34219e-06
-2.5388e-07
3.46768e-06
-2.39412e-07
3.58407e-06
-2.17921e-07
3.69306e-06
-1.76174e-07
3.79111e-06
-1.33717e-07
3.87952e-06
-7.21719e-08
3.95924e-06
3.06741e-08
4.01244e-06
1.21353e-07
4.05052e-06
2.9989e-07
4.01224e-06
5.15166e-07
3.91891e-06
7.15456e-07
3.84547e-06
1.08683e-06
3.52863e-06
1.30375e-06
2.7511e-06
1.47638e-06
1.64682e-06
1.54942e-06
5.80355e-07
1.19321e-06
-1.38974e-07
8.98623e-07
-5.14024e-07
6.41775e-07
-7.06748e-07
3.26172e-07
-8.09643e-07
-2.56067e-08
-7.0728e-07
-5.37164e-07
-3.17149e-07
-9.07436e-07
1.67963e-08
-5.05635e-07
4.8478e-07
-5.06299e-07
8.62995e-07
-6.73227e-07
5.23548e-07
-6.84632e-08
-3.50899e-07
6.76971e-07
-1.28524e-06
1.03225e-06
-1.99088e-06
1.24319e-06
-2.51534e-06
1.30115e-06
-2.99677e-06
1.2255e-06
-3.42859e-06
1.09267e-06
-3.80235e-06
9.44441e-07
-4.12321e-06
8.04209e-07
-4.3993e-06
6.82188e-07
-4.64044e-06
5.83134e-07
-4.85479e-06
5.05717e-07
-5.05022e-06
4.49746e-07
-5.23318e-06
4.11737e-07
-5.4095e-06
3.90028e-07
-5.58381e-06
3.81207e-07
-5.75981e-06
3.83013e-07
-5.94026e-06
3.92594e-07
-6.12713e-06
4.07922e-07
-6.3218e-06
4.27017e-07
-6.52509e-06
4.48373e-07
-6.73725e-06
4.7056e-07
-6.95804e-06
4.92376e-07
-7.18682e-06
5.12771e-07
-7.42259e-06
5.30805e-07
-7.66395e-06
5.45568e-07
-7.90909e-06
5.56151e-07
-8.15577e-06
5.61627e-07
-8.40136e-06
5.61036e-07
-8.64276e-06
5.53396e-07
-8.87643e-06
5.37711e-07
-9.09839e-06
5.13012e-07
-9.30426e-06
4.78412e-07
-9.4893e-06
4.33176e-07
-9.64855e-06
3.76792e-07
-9.77697e-06
3.09053e-07
-9.86953e-06
2.30131e-07
-9.92149e-06
1.40641e-07
-9.92834e-06
4.16537e-08
-9.8843e-06
-6.57681e-08
-9.78414e-06
-1.79933e-07
-9.62513e-06
-2.98366e-07
-9.40614e-06
-4.18645e-07
-9.12751e-06
-5.38266e-07
-8.79084e-06
-6.54699e-07
-8.399e-06
-7.65489e-07
-7.95602e-06
-8.68377e-07
-7.46693e-06
-9.61375e-07
-6.93759e-06
-1.04285e-06
-6.37448e-06
-1.11163e-06
-5.78437e-06
-1.16708e-06
-5.17406e-06
-1.2092e-06
-4.55006e-06
-1.23845e-06
-3.91841e-06
-1.2557e-06
-3.28459e-06
-1.26194e-06
-2.65365e-06
-1.25799e-06
-2.03028e-06
-1.24442e-06
-1.41921e-06
-1.22123e-06
-8.25572e-07
-1.18785e-06
-2.54994e-07
-1.14356e-06
2.87093e-07
-1.08793e-06
7.95825e-07
-1.02112e-06
1.26624e-06
-9.43782e-07
1.69337e-06
-8.56804e-07
2.07303e-06
-7.61541e-07
2.40199e-06
-6.59802e-07
2.6781e-06
-5.53754e-07
2.90033e-06
-4.45739e-07
3.06886e-06
-3.38202e-07
3.18502e-06
-2.33611e-07
3.25149e-06
-1.34381e-07
3.27314e-06
-4.31476e-08
3.2553e-06
3.78122e-08
3.20264e-06
1.06683e-07
3.12117e-06
1.61659e-07
3.01842e-06
2.01294e-07
2.90276e-06
2.24594e-07
2.78291e-06
2.31085e-07
2.66757e-06
2.2097e-07
2.56489e-06
1.95291e-07
2.48206e-06
1.56022e-07
2.42478e-06
1.06019e-07
2.39684e-06
4.8794e-08
2.3997e-06
-1.18751e-08
2.43281e-06
-7.25411e-08
2.49447e-06
-1.30541e-07
2.58232e-06
-1.83957e-07
2.69362e-06
-2.31348e-07
2.82527e-06
-2.71496e-07
2.97362e-06
-3.03443e-07
3.13428e-06
-3.26849e-07
3.30238e-06
-3.42284e-07
3.47338e-06
-3.50816e-07
3.64447e-06
-3.52609e-07
3.81604e-06
-3.45584e-07
3.99204e-06
-3.26269e-07
4.17779e-06
-2.93365e-07
4.37466e-06
-2.49811e-07
4.57328e-06
-1.98792e-07
4.75324e-06
-1.39251e-07
4.8921e-06
-6.96675e-08
4.97577e-06
3.12908e-09
5.00497e-06
6.28125e-08
4.9952e-06
9.44187e-08
4.9685e-06
9.67558e-08
4.94147e-06
8.52022e-08
4.91707e-06
8.17194e-08
4.88656e-06
9.91337e-08
4.83943e-06
1.33474e-07
4.77296e-06
1.69237e-07
4.69397e-06
1.91686e-07
4.61392e-06
1.94513e-07
4.54227e-06
1.80567e-07
4.48405e-06
1.55989e-07
4.43914e-06
1.28306e-07
4.40496e-06
1.02218e-07
4.37586e-06
8.40083e-08
4.34783e-06
7.3518e-08
4.3149e-06
7.51331e-08
4.27738e-06
8.06115e-08
4.22978e-06
9.83667e-08
4.17734e-06
1.1242e-07
4.1084e-06
1.48537e-07
4.03233e-06
1.74221e-07
3.92441e-06
2.49973e-07
3.0736e-07
3.79432e-06
2.1956e-07
-3.17579e-07
5.54411e-07
-5.35652e-07
8.51703e-07
-5.75553e-07
1.08664e-06
-5.57179e-07
1.26284e-06
-5.09605e-07
1.38341e-06
-4.43907e-07
1.47993e-06
-4.04223e-07
1.57739e-06
-4.00329e-07
1.64813e-06
-3.79065e-07
1.62987e-06
-2.88085e-07
1.52464e-06
-2.06189e-07
1.38286e-06
-1.80815e-07
1.21753e-06
-1.55229e-07
1.03992e-06
-1.1862e-07
8.70277e-07
-8.81549e-08
7.24539e-07
-7.42341e-08
6.11687e-07
-7.89305e-08
5.3491e-07
-9.81022e-08
4.93392e-07
-1.26079e-07
4.84334e-07
-1.59071e-07
5.04561e-07
-1.95002e-07
5.51413e-07
-2.32466e-07
6.22607e-07
-2.70576e-07
7.16213e-07
-3.08378e-07
8.30331e-07
-3.43812e-07
9.62002e-07
-3.74947e-07
1.10878e-06
-4.00724e-07
1.26859e-06
-4.1979e-07
1.43632e-06
-4.29097e-07
1.60961e-06
-4.27174e-07
1.7848e-06
-4.14599e-07
1.95622e-06
-3.89346e-07
2.13047e-06
-3.50426e-07
2.30003e-06
-3.03275e-07
2.45837e-06
-2.30512e-07
2.62699e-06
-1.37944e-07
2.80198e-06
-5.36412e-08
3.00256e-06
9.93122e-08
3.22698e-06
2.90749e-07
3.47817e-06
4.64262e-07
3.79252e-06
7.72478e-07
3.98992e-06
1.10634e-06
4.02814e-06
1.43817e-06
3.86451e-06
1.71304e-06
3.28254e-06
1.77519e-06
2.48523e-06
1.69593e-06
1.67796e-06
1.44905e-06
9.24486e-07
1.07964e-06
2.98618e-07
6.00261e-07
-2.39247e-07
7.01086e-10
-5.0653e-07
-6.40154e-07
-2.22014e-07
-7.90151e-07
1.0467e-07
-8.32983e-07
-2.96675e-07
-2.71882e-07
-1.10335e-06
7.38209e-07
-1.74712e-06
1.32074e-06
-2.28839e-06
1.57352e-06
-2.70867e-06
1.66347e-06
-3.00349e-06
1.59597e-06
-3.24705e-06
1.46906e-06
-3.46029e-06
1.30591e-06
-3.65607e-06
1.14022e-06
-3.83745e-06
9.85584e-07
-4.0061e-06
8.50845e-07
-4.16351e-06
7.40539e-07
-4.31182e-06
6.54029e-07
-4.45389e-06
5.91815e-07
-4.59322e-06
5.51067e-07
-4.73316e-06
5.29971e-07
-4.87686e-06
5.24905e-07
-5.02671e-06
5.32861e-07
-5.1846e-06
5.50486e-07
-5.35182e-06
5.75142e-07
-5.52921e-06
6.04402e-07
-5.71706e-06
6.36228e-07
-5.91532e-06
6.68818e-07
-6.12368e-06
7.00737e-07
-6.34162e-06
7.30706e-07
-6.5683e-06
7.57489e-07
-6.80258e-06
7.79848e-07
-7.04295e-06
7.96521e-07
-7.2875e-06
8.06179e-07
-7.53388e-06
8.07411e-07
-7.77919e-06
7.98712e-07
-8.01999e-06
7.78505e-07
-8.25218e-06
7.452e-07
-8.47103e-06
6.97271e-07
-8.67124e-06
6.33378e-07
-8.84694e-06
5.52497e-07
-8.99195e-06
4.54059e-07
-9.0999e-06
3.38077e-07
-9.1645e-06
2.05247e-07
-9.17983e-06
5.69851e-08
-9.14107e-06
-1.04537e-07
-9.04433e-06
-2.76669e-07
-8.88662e-06
-4.56077e-07
-8.66628e-06
-6.38985e-07
-8.38319e-06
-8.21354e-07
-8.03876e-06
-9.99125e-07
-7.63586e-06
-1.16839e-06
-7.17868e-06
-1.32556e-06
-6.6726e-06
-1.46745e-06
-6.12403e-06
-1.59143e-06
-5.54011e-06
-1.69554e-06
-4.92846e-06
-1.77873e-06
-4.29677e-06
-1.84089e-06
-3.65243e-06
-1.88279e-06
-3.00224e-06
-1.9059e-06
-2.35237e-06
-1.91181e-06
-1.70852e-06
-1.90184e-06
-1.07622e-06
-1.87672e-06
-4.61178e-07
-1.83627e-06
1.30927e-07
-1.77996e-06
6.94666e-07
-1.7073e-06
1.22467e-06
-1.61793e-06
1.71554e-06
-1.512e-06
2.1624e-06
-1.39065e-06
2.56152e-06
-1.25592e-06
2.91049e-06
-1.11051e-06
3.20806e-06
-9.57372e-07
3.45385e-06
-7.99542e-07
3.64811e-06
-6.40004e-07
3.7917e-06
-4.81786e-07
3.88616e-06
-3.28075e-07
3.93374e-06
-1.81963e-07
3.93713e-06
-4.65394e-08
3.90044e-06
7.45052e-08
3.82946e-06
1.77668e-07
3.73085e-06
2.60268e-07
3.61205e-06
3.20087e-07
3.48119e-06
3.55457e-07
3.3468e-06
3.65478e-07
3.21751e-06
3.50259e-07
3.10159e-06
3.11211e-07
3.00633e-06
2.51284e-07
2.93737e-06
1.74977e-07
2.8982e-06
8.79674e-08
2.89003e-06
-3.71286e-09
2.91215e-06
-9.46606e-08
2.96245e-06
-1.80837e-07
3.03807e-06
-2.59579e-07
3.13557e-06
-3.28848e-07
3.25051e-06
-3.86431e-07
3.37704e-06
-4.29979e-07
3.50832e-06
-4.5813e-07
3.63804e-06
-4.71996e-07
3.76259e-06
-4.75371e-07
3.88268e-06
-4.72694e-07
4.00319e-06
-4.66099e-07
4.1315e-06
-4.54576e-07
4.27438e-06
-4.36247e-07
4.43474e-06
-4.10173e-07
4.60986e-06
-3.73914e-07
4.79134e-06
-3.20731e-07
4.96481e-06
-2.43131e-07
5.1095e-06
-1.41569e-07
5.2032e-06
-3.08848e-08
5.23443e-06
6.31905e-08
5.21293e-06
1.1826e-07
5.16808e-06
1.3005e-07
5.13383e-06
1.15963e-07
5.1292e-06
1.03763e-07
5.14864e-06
1.14039e-07
5.16909e-06
1.48791e-07
5.16722e-06
1.93555e-07
5.13376e-06
2.27971e-07
5.07574e-06
2.38586e-07
5.00883e-06
2.22903e-07
4.94784e-06
1.89295e-07
4.90181e-06
1.48243e-07
4.87289e-06
1.12927e-07
4.8576e-06
8.88113e-08
4.84887e-06
8.38651e-08
4.83868e-06
9.07948e-08
4.82138e-06
1.15669e-07
4.79308e-06
1.40722e-07
4.75588e-06
1.85734e-07
4.70675e-06
2.23357e-07
4.6554e-06
3.01321e-07
3.7437e-07
4.58839e-06
3.64619e-07
-6.82198e-07
6.44372e-07
-8.15405e-07
8.03591e-07
-7.34772e-07
8.95487e-07
-6.49075e-07
9.1316e-07
-5.27278e-07
8.20531e-07
-3.51278e-07
6.645e-07
-2.48192e-07
4.68557e-07
-2.04386e-07
2.03871e-07
-1.14379e-07
-9.01409e-08
5.92678e-09
-3.55162e-07
5.88318e-08
-5.72639e-07
3.66628e-08
-7.40216e-07
1.23483e-08
-8.68051e-07
9.21487e-09
-9.68326e-07
1.21208e-08
-1.05109e-06
8.52501e-09
-1.12192e-06
-8.10045e-09
-1.18061e-06
-3.94073e-08
-1.22307e-06
-8.3618e-08
-1.24414e-06
-1.38005e-07
-1.23929e-06
-1.9985e-07
-1.20512e-06
-2.66632e-07
-1.13969e-06
-3.36011e-07
-1.0426e-06
-4.0547e-07
-9.14339e-07
-4.7207e-07
-7.56445e-07
-5.32841e-07
-5.72133e-07
-5.85036e-07
-3.65616e-07
-6.26308e-07
-1.41322e-07
-6.53391e-07
9.49293e-08
-6.63425e-07
3.35772e-07
-6.55442e-07
5.7828e-07
-6.31854e-07
8.21429e-07
-5.93574e-07
1.05798e-06
-5.3983e-07
1.29508e-06
-4.6761e-07
1.54452e-06
-3.87384e-07
1.79046e-06
-2.99584e-07
2.05814e-06
-1.68358e-07
2.3676e-06
-1.87176e-08
2.69766e-06
1.34202e-07
3.0815e-06
3.88644e-07
3.49481e-06
6.93031e-07
3.93105e-06
1.00193e-06
4.30261e-06
1.34149e-06
4.43081e-06
1.64699e-06
4.29659e-06
1.83014e-06
3.87951e-06
1.86613e-06
3.23069e-06
1.72846e-06
2.48913e-06
1.34183e-06
1.58675e-06
9.03079e-07
6.60668e-07
2.85928e-07
2.02482e-07
-3.31965e-07
-1.68112e-07
-4.62389e-07
-7.78734e-07
3.3874e-07
-1.40142e-06
1.36089e-06
-1.90957e-06
1.8289e-06
-2.29169e-06
1.95564e-06
-2.57333e-06
1.9451e-06
-2.77944e-06
1.80208e-06
-2.94406e-06
1.63368e-06
-3.0829e-06
1.44475e-06
-3.21087e-06
1.26819e-06
-3.33125e-06
1.10597e-06
-3.44671e-06
9.66305e-07
-3.5574e-06
8.51227e-07
-3.66508e-06
7.61703e-07
-3.7714e-06
6.98138e-07
-3.87938e-06
6.59049e-07
-3.99189e-06
6.42485e-07
-4.11196e-06
6.4497e-07
-4.24179e-06
6.6269e-07
-4.38288e-06
6.91577e-07
-4.53588e-06
7.28146e-07
-4.70086e-06
7.69379e-07
-4.87766e-06
8.13033e-07
-5.06621e-06
8.57361e-07
-5.26637e-06
9.00898e-07
-5.47791e-06
9.42243e-07
-5.70049e-06
9.80071e-07
-5.93363e-06
1.013e-06
-6.17665e-06
1.03954e-06
-6.42853e-06
1.05805e-06
-6.68775e-06
1.06663e-06
-6.95214e-06
1.06311e-06
-7.21871e-06
1.04507e-06
-7.48345e-06
1.00994e-06
-7.74126e-06
9.55075e-07
-7.98589e-06
8.78013e-07
-8.21011e-06
7.76714e-07
-8.4059e-06
6.4985e-07
-8.56487e-06
4.97047e-07
-8.67868e-06
3.19057e-07
-8.73952e-06
1.1782e-07
-8.74048e-06
-1.03571e-07
-8.67594e-06
-3.41214e-07
-8.54202e-06
-5.89998e-07
-8.3368e-06
-8.44202e-07
-8.06027e-06
-1.09788e-06
-7.71419e-06
-1.34521e-06
-7.30183e-06
-1.58075e-06
-6.82788e-06
-1.79951e-06
-6.29818e-06
-1.99715e-06
-5.71958e-06
-2.17003e-06
-5.09971e-06
-2.31542e-06
-4.44671e-06
-2.43173e-06
-3.76886e-06
-2.51874e-06
-3.07408e-06
-2.57757e-06
-2.36963e-06
-2.61034e-06
-1.66199e-06
-2.61946e-06
-9.56972e-07
-2.60686e-06
-2.60458e-07
-2.57323e-06
4.21139e-07
-2.51787e-06
1.08055e-06
-2.43937e-06
1.70896e-06
-2.33571e-06
2.29603e-06
-2.205e-06
2.8311e-06
-2.04706e-06
3.3046e-06
-1.86415e-06
3.70963e-06
-1.66095e-06
4.04305e-06
-1.44393e-06
4.30574e-06
-1.22006e-06
4.50181e-06
-9.95611e-07
4.63711e-06
-7.75302e-07
4.7178e-06
-5.62482e-07
4.74939e-06