/*--------------------------------*- C++ -*----------------------------------*\
  =========                 |
  \\      /  F ield         | OpenFOAM: The Open Source CFD Toolbox
   \\    /   O peration     | Website:  https://openfoam.org
    \\  /    A nd           | Version:  6
     \\/     M anipulation  |
\*---------------------------------------------------------------------------*/
FoamFile
{
    version     2.0;
    format      ascii;
    class       surfaceScalarField;
    location    "0.05";
    object      phi_0;
}
// * * * * * * * * * * * * * * * * * * * * * * * * * * * * * * * * * * * * * //

dimensions      [0 3 -1 0 0 0 0];

internalField   nonuniform List<scalar> 
24170
(
3.07515e-06
1.06112e-07
3.00401e-06
7.11347e-08
2.90857e-06
9.54405e-08
2.79464e-06
1.13935e-07
2.69678e-06
9.78625e-08
2.62464e-06
7.21324e-08
2.56401e-06
6.06368e-08
2.49676e-06
6.72483e-08
2.41829e-06
7.84676e-08
2.33408e-06
8.4213e-08
2.25407e-06
8.00099e-08
2.18194e-06
7.21281e-08
2.11802e-06
6.39217e-08
2.05711e-06
6.09084e-08
1.99523e-06
6.18823e-08
1.92221e-06
7.30209e-08
1.83568e-06
8.6521e-08
1.14792e-07
1.72089e-06
3.45022e-06
1.09284e-07
3.46242e-06
5.89374e-08
3.47181e-06
8.60544e-08
3.46521e-06
1.2053e-07
3.45576e-06
1.07316e-07
3.45816e-06
6.97293e-08
3.47309e-06
4.57102e-08
3.49031e-06
5.0031e-08
3.49801e-06
7.0768e-08
3.48992e-06
9.2301e-08
3.46743e-06
1.02502e-07
3.43766e-06
1.0189e-07
3.40709e-06
9.44958e-08
3.37984e-06
8.81596e-08
3.35494e-06
8.67827e-08
3.32947e-06
9.84852e-08
3.29464e-06
1.21356e-07
1.42424e-07
3.26701e-06
3.63255e-06
1.043e-07
3.66081e-06
3.0681e-08
3.69595e-06
5.09144e-08
3.73151e-06
8.49671e-08
3.74637e-06
9.24562e-08
3.73664e-06
7.94617e-08
3.71597e-06
6.63825e-08
3.70082e-06
6.51776e-08
3.69769e-06
7.39011e-08
3.70466e-06
8.53313e-08
3.71672e-06
9.04404e-08
3.73157e-06
8.70368e-08
3.74724e-06
7.88307e-08
3.76269e-06
7.27011e-08
3.7749e-06
7.45792e-08
3.78236e-06
9.10212e-08
3.78603e-06
1.17686e-07
1.41469e-07
3.78699e-06
3.95016e-06
6.64986e-08
4.01133e-06
-3.04862e-08
4.05745e-06
4.79452e-09
4.07445e-06
6.79625e-08
4.06503e-06
1.01882e-07
4.03848e-06
1.06004e-07
4.01106e-06
9.38082e-08
3.99516e-06
8.10793e-08
3.99112e-06
7.79336e-08
3.99195e-06
8.45075e-08
3.99004e-06
9.23429e-08
3.98336e-06
9.37232e-08
3.97429e-06
8.7901e-08
3.96728e-06
7.97132e-08
3.96547e-06
7.63833e-08
3.97147e-06
8.50254e-08
3.98612e-06
1.03036e-07
1.26132e-07
4.00146e-06
4.2011e-06
2.1762e-08
4.22221e-06
-5.15951e-08
4.22076e-06
6.24561e-09
4.22127e-06
6.7444e-08
4.2264e-06
9.67576e-08
4.22806e-06
1.04345e-07
4.22474e-06
9.71208e-08
4.22248e-06
8.33415e-08
4.22734e-06
7.30734e-08
4.24134e-06
7.05113e-08
4.26197e-06
7.17084e-08
4.28443e-06
7.12656e-08
4.30337e-06
6.89633e-08
4.31454e-06
6.85421e-08
4.31724e-06
7.36841e-08
4.3148e-06
8.74646e-08
4.31061e-06
1.07228e-07
1.32012e-07
4.30473e-06
4.58461e-06
5.71755e-08
4.58162e-06
-4.86017e-08
4.58037e-06
7.49231e-09
4.58828e-06
5.95346e-08
4.59721e-06
8.78252e-08
4.5988e-06
1.02757e-07
4.59112e-06
1.04802e-07
4.58047e-06
9.39865e-08
4.57605e-06
7.74951e-08
4.58246e-06
6.40986e-08
4.59677e-06
5.73985e-08
4.61105e-06
5.69898e-08
4.61787e-06
6.21371e-08
4.61381e-06
7.26051e-08
4.60089e-06
8.66016e-08
4.58426e-06
1.04097e-07
4.56885e-06
1.22637e-07
1.43439e-07
4.55743e-06
4.90352e-06
-6.62484e-08
4.924e-06
-6.90762e-08
4.9162e-06
1.52869e-08
4.91405e-06
6.16858e-08
4.91691e-06
8.49636e-08
4.91349e-06
1.06175e-07
4.89928e-06
1.19021e-07
4.87831e-06
1.14953e-07
4.85859e-06
9.72171e-08
4.84681e-06
7.5872e-08
4.84537e-06
5.88386e-08
4.85221e-06
5.015e-08
4.86343e-06
5.09219e-08
4.87555e-06
6.04889e-08
4.88597e-06
7.61726e-08
4.89444e-06
9.56315e-08
4.90059e-06
1.16485e-07
1.37702e-07
4.90633e-06
5.13299e-06
-1.70428e-08
5.16137e-06
-9.74538e-08
5.19247e-06
-1.58153e-08
5.21124e-06
4.29177e-08
5.21744e-06
7.87561e-08
5.21515e-06
1.08466e-07
5.21109e-06
1.23084e-07
5.21132e-06
1.14718e-07
5.21729e-06
9.12483e-08
5.22596e-06
6.72064e-08
5.23361e-06
5.11839e-08
5.23922e-06
4.45416e-08
5.24489e-06
4.5256e-08
5.25397e-06
5.14108e-08
5.26797e-06
6.21639e-08
5.2864e-06
7.7207e-08
5.30678e-06
9.61073e-08
1.18585e-07
5.32589e-06
5.7487e-06
-4.10461e-08
5.62933e-06
2.19197e-08
5.57709e-06
3.64265e-08
5.58324e-06
3.67622e-08
5.6109e-06
5.10977e-08
5.63833e-06
8.10318e-08
5.65809e-06
1.03328e-07
5.66859e-06
1.04222e-07
5.67086e-06
8.89758e-08
5.66869e-06
6.93805e-08
5.66621e-06
5.36591e-08
5.6655e-06
4.52519e-08
5.66646e-06
4.42986e-08
5.66779e-06
5.00756e-08
5.6696e-06
6.03567e-08
5.67187e-06
7.49394e-08
5.67675e-06
9.12198e-08
1.09592e-07
5.68575e-06
5.8502e-06
-1.93759e-07
5.89204e-06
-1.99225e-08
5.90558e-06
2.28897e-08
5.94539e-06
-3.05581e-09
5.99719e-06
-6.99693e-10
6.03975e-06
3.84696e-08
6.06449e-06
7.85963e-08
6.07589e-06
9.28166e-08
6.08453e-06
8.03374e-08
6.09815e-06
5.57557e-08
6.11671e-06
3.51034e-08
6.1334e-06
2.85572e-08
6.14024e-06
3.74631e-08
6.13265e-06
5.76622e-08
6.11232e-06
8.06927e-08
6.08584e-06
1.01414e-07
6.06187e-06
1.15194e-07
1.23233e-07
6.04823e-06
6.34808e-06
-8.20644e-08
6.36003e-06
-3.18759e-08
6.36508e-06
1.78375e-08
6.34444e-06
1.75902e-08
6.3338e-06
9.93476e-09
6.35764e-06
1.46353e-08
6.40592e-06
3.03129e-08
6.45234e-06
4.63993e-08
6.47747e-06
5.52021e-08
6.47815e-06
5.50741e-08
6.46438e-06
4.88747e-08
6.45035e-06
4.2589e-08
6.44652e-06
4.12938e-08
6.45701e-06
4.71745e-08
6.47883e-06
5.88683e-08
6.50754e-06
7.27029e-08
6.53669e-06
8.60479e-08
9.74856e-08
6.56244e-06
5.82939e-06
-1.02479e-07
5.83359e-06
-3.60735e-08
5.84765e-06
3.77982e-09
5.83836e-06
2.68806e-08
5.79317e-06
5.51271e-08
5.7405e-06
6.73063e-08
5.70692e-06
6.38904e-08
5.6967e-06
5.66162e-08
5.70128e-06
5.06262e-08
5.7126e-06
4.37463e-08
5.72788e-06
3.36007e-08
5.74771e-06
2.27532e-08
5.7734e-06
1.56058e-08
5.80501e-06
1.55691e-08
5.84062e-06
2.32514e-08
5.87675e-06
3.6578e-08
5.90977e-06
5.30307e-08
6.94561e-08
5.9378e-06
7.17978e-06
-1.07876e-07
7.09616e-06
4.75519e-08
7.01608e-06
8.38549e-08
6.98451e-06
5.8447e-08
6.98805e-06
5.15889e-08
7.00233e-06
5.30264e-08
7.01574e-06
5.04811e-08
7.03409e-06
3.82633e-08
7.068e-06
1.6719e-08
7.11794e-06
-6.18974e-09
7.1716e-06
-2.00606e-08
7.21262e-06
-1.82701e-08
7.23037e-06
-2.13943e-09
7.22436e-06
2.15747e-08
7.20317e-06
4.44476e-08
7.17738e-06
6.23595e-08
7.15737e-06
7.30489e-08
7.90471e-08
7.14777e-06
8.49905e-06
-1.73434e-07
8.46604e-06
8.0564e-08
8.43911e-06
1.10787e-07
8.44398e-06
5.35698e-08
8.48601e-06
9.55987e-09
8.55014e-06
-1.11028e-08
8.62175e-06
-2.1123e-08
8.68944e-06
-2.94354e-08
8.74419e-06
-3.80238e-08
8.77993e-06
-4.19368e-08
8.79458e-06
-3.47099e-08
8.79082e-06
-1.45107e-08
8.77481e-06
1.3876e-08
8.75313e-06
4.32526e-08
8.73187e-06
6.57107e-08
8.71543e-06
7.8799e-08
8.70716e-06
8.13213e-08
7.60416e-08
8.71016e-06
1.0472e-05
-2.56462e-07
1.0543e-05
9.54018e-09
1.05318e-05
1.22023e-07
1.04856e-05
9.97978e-08
1.04482e-05
4.69105e-08
1.04436e-05
-6.5136e-09
1.04705e-05
-4.80322e-08
1.05123e-05
-7.11663e-08
1.05517e-05
-7.74881e-08
1.0579e-05
-6.92023e-08
1.05919e-05
-4.75798e-08
1.05932e-05
-1.58298e-08
1.05885e-05
1.85107e-08
1.05834e-05
4.84017e-08
1.05816e-05
6.7524e-08
1.05856e-05
7.48279e-08
1.05962e-05
7.07192e-08
5.91275e-08
1.06131e-05
1.26752e-05
-2.75639e-07
1.2723e-05
-3.82826e-08
1.26764e-05
1.68645e-07
1.26649e-05
1.11314e-07
1.2714e-05
-2.14333e-09
1.27699e-05
-6.24978e-08
1.27877e-05
-6.58061e-08
1.27614e-05
-4.48308e-08
1.27133e-05
-2.94174e-08
1.26719e-05
-2.78137e-08
1.26561e-05
-3.17903e-08
1.2671e-05
-3.06744e-08
1.27106e-05
-2.10841e-08
1.27648e-05
-5.8536e-09
1.28231e-05
9.27964e-09
1.28781e-05
1.98375e-08
1.29257e-05
2.3111e-08
1.8353e-08
1.29664e-05
1.51996e-05
3.13412e-08
1.52499e-05
-8.8516e-08
1.54661e-05
-4.75702e-08
1.56143e-05
-3.69356e-08
1.56409e-05
-2.87346e-08
1.55969e-05
-1.8486e-08
1.55519e-05
-2.07917e-08
1.55405e-05
-3.34489e-08
1.55568e-05
-4.565e-08
1.55786e-05
-4.96957e-08
1.55908e-05
-4.40007e-08
1.55919e-05
-3.17055e-08
1.55892e-05
-1.84029e-08
1.55923e-05
-8.98944e-09
1.56083e-05
-6.71419e-09
1.56395e-05
-1.13366e-08
1.56849e-05
-2.23361e-08
-3.67675e-08
1.57401e-05
1.87997e-05
1.29141e-07
1.86513e-05
5.98619e-08
1.86871e-05
-8.33422e-08
1.87382e-05
-8.80192e-08
1.8753e-05
-4.35521e-08
1.8772e-05
-3.74398e-08
1.88193e-05
-6.81662e-08
1.88836e-05
-9.76922e-08
1.89397e-05
-1.01776e-07
1.89726e-05
-8.25745e-08
1.89838e-05
-5.52372e-08
1.89844e-05
-3.23363e-08
1.89854e-05
-1.93955e-08
1.89926e-05
-1.61979e-08
1.90066e-05
-2.06769e-08
1.90257e-05
-3.04068e-08
1.90469e-05
-4.35229e-08
-5.92447e-08
1.90693e-05
2.32574e-05
9.94487e-08
2.32155e-05
1.01767e-07
2.30592e-05
7.29581e-08
2.29175e-05
5.36975e-08
2.28743e-05
-3.58556e-10
2.29081e-05
-7.12376e-08
2.29612e-05
-1.21323e-07
2.30026e-05
-1.39093e-07
2.30354e-05
-1.34594e-07
2.30759e-05
-1.23059e-07
2.31343e-05
-1.13587e-07
2.32092e-05
-1.0724e-07
2.3292e-05
-1.02233e-07
2.33731e-05
-9.72824e-08
2.34441e-05
-9.17098e-08
2.35001e-05
-8.64009e-08
2.35384e-05
-8.18145e-08
-7.90898e-08
2.35583e-05
1.6875e-05
3.91218e-07
1.69774e-05
-6.50721e-10
1.70807e-05
-3.02513e-08
1.70894e-05
4.49091e-08
1.70161e-05
7.29449e-08
1.6904e-05
4.0861e-08
1.68025e-05
-1.98247e-08
1.67388e-05
-7.5322e-08
1.67115e-05
-1.07324e-07
1.67036e-05
-1.15111e-07
1.66984e-05
-1.08452e-07
1.66903e-05
-9.90856e-08
1.66831e-05
-9.50548e-08
1.66848e-05
-9.90413e-08
1.67014e-05
-1.08262e-07
1.67332e-05
-1.18236e-07
1.67768e-05
-1.25413e-07
-1.2905e-07
1.68268e-05
1.48269e-05
-8.68282e-09
1.48151e-05
1.11815e-08
1.47539e-05
3.08971e-08
1.47956e-05
3.28278e-09
1.48967e-05
-2.8156e-08
1.49717e-05
-3.41302e-08
1.49724e-05
-2.05807e-08
1.49068e-05
-9.74883e-09
1.4814e-05
-1.44357e-08
1.4731e-05
-3.2166e-08
1.46777e-05
-5.51619e-08
1.46568e-05
-7.81632e-08
1.4661e-05
-9.92442e-08
1.468e-05
-1.18039e-07
1.47053e-05
-1.33608e-07
1.47316e-05
-1.44468e-07
1.47562e-05
-1.50003e-07
-1.46778e-07
1.47739e-05
1.2826e-05
-8.95112e-08
1.28446e-05
-7.35792e-09
1.28667e-05
8.70747e-09
1.29227e-05
-5.26796e-08
1.29611e-05
-6.65354e-08
1.29555e-05
-2.85193e-08
1.29227e-05
1.22135e-08
1.28881e-05
2.48292e-08
1.28635e-05
1.01263e-08
1.28476e-05
-1.62174e-08
1.28339e-05
-4.1515e-08
1.28176e-05
-6.18325e-08
1.27974e-05
-7.90083e-08
1.27752e-05
-9.58668e-08
1.27557e-05
-1.14151e-07
1.27438e-05
-1.32566e-07
1.27433e-05
-1.49445e-07
-1.643e-07
1.27608e-05
1.12459e-05
-4.036e-08
1.12743e-05
-3.57668e-08
1.13169e-05
-3.38654e-08
1.12888e-05
-2.4557e-08
1.1224e-05
-1.78411e-09
1.11887e-05
6.80065e-09
1.12119e-05
-1.09549e-08
1.12755e-05
-3.87657e-08
1.13406e-05
-5.50153e-08
1.13746e-05
-5.02275e-08
1.13649e-05
-3.17907e-08
1.13192e-05
-1.61173e-08
1.12564e-05
-1.62849e-08
1.11964e-05
-3.58386e-08
1.11517e-05
-6.94422e-08
1.11265e-05
-1.07349e-07
1.11185e-05
-1.41409e-07
-1.62803e-07
1.1117e-05
9.93614e-06
2.13076e-07
9.85912e-06
4.12596e-08
9.86669e-06
-4.14437e-08
9.89429e-06
-5.21501e-08
9.90868e-06
-1.61775e-08
9.88886e-06
2.6619e-08
9.84512e-06
3.27872e-08
9.80669e-06
-3.37348e-10
9.79458e-06
-4.29055e-08
9.81034e-06
-6.59848e-08
9.84128e-06
-6.27332e-08
9.87124e-06
-4.60725e-08
9.88884e-06
-3.38886e-08
9.8904e-06
-3.73996e-08
9.87756e-06
-5.66019e-08
9.85428e-06
-8.40662e-08
9.82386e-06
-1.10993e-07
-1.30463e-07
9.79152e-06
8.4828e-06
1.16534e-07
8.45883e-06
6.52262e-08
8.42022e-06
-2.83393e-09
8.3971e-06
-2.90277e-08
8.40558e-06
-2.46612e-08
8.43736e-06
-5.15667e-09
8.46749e-06
2.65804e-09
8.48e-06
-1.28471e-08
8.47814e-06
-4.10446e-08
8.47498e-06
-6.2827e-08
8.48007e-06
-6.7827e-08
8.49432e-06
-6.03174e-08
8.51253e-06
-5.21047e-08
8.5282e-06
-5.30676e-08
8.53639e-06
-6.47918e-08
8.53475e-06
-8.24281e-08
8.52341e-06
-9.96507e-08
-1.09355e-07
8.5023e-06
7.14444e-06
2.5208e-08
7.29483e-06
-8.51709e-08
7.3712e-06
-7.91965e-08
7.38344e-06
-4.12707e-08
7.38266e-06
-2.38861e-08
7.39668e-06
-1.91714e-08
7.42159e-06
-2.22507e-08
7.44105e-06
-3.2313e-08
7.44539e-06
-4.53854e-08
7.43808e-06
-5.55147e-08
7.42933e-06
-5.90737e-08
7.42621e-06
-5.72041e-08
7.42852e-06
-5.44123e-08
7.431e-06
-5.55459e-08
7.42832e-06
-6.21079e-08
7.41821e-06
-7.2321e-08
7.40133e-06
-8.27678e-08
-8.9545e-08
7.38152e-06
6.48102e-06
-1.42591e-07
6.48365e-06
-8.78008e-08
6.45078e-06
-4.63273e-08
6.44759e-06
-3.80815e-08
6.46267e-06
-3.89716e-08
6.48416e-06
-4.0656e-08
6.51064e-06
-4.8734e-08
6.53975e-06
-6.14153e-08
6.56519e-06
-7.08274e-08
6.58087e-06
-7.11958e-08
6.58434e-06
-6.25484e-08
6.57718e-06
-5.00377e-08
6.56345e-06
-4.06876e-08
6.54806e-06
-4.01531e-08
6.53444e-06
-4.84906e-08
6.52411e-06
-6.19877e-08
6.51669e-06
-7.53456e-08
-8.21706e-08
6.50931e-06
5.63119e-06
-9.67554e-08
5.64139e-06
-9.8e-08
5.63586e-06
-4.07995e-08
5.63471e-06
-3.69315e-08
5.64126e-06
-4.55186e-08
5.64784e-06
-4.72381e-08
5.65074e-06
-5.1626e-08
5.65064e-06
-6.13172e-08
5.64941e-06
-6.95974e-08
5.64899e-06
-7.07777e-08
5.65124e-06
-6.48036e-08
5.65734e-06
-5.61381e-08
5.66721e-06
-5.0556e-08
5.67937e-06
-5.2305e-08
5.6912e-06
-6.03291e-08
5.70022e-06
-7.10005e-08
5.70391e-06
-7.90391e-08
-7.87194e-08
5.70046e-06
4.83657e-06
-1.60487e-08
4.81253e-06
-7.39647e-08
4.81041e-06
-3.86823e-08
4.81866e-06
-4.5179e-08
4.83439e-06
-6.1251e-08
4.85859e-06
-7.14386e-08
4.88419e-06
-7.72225e-08
4.90141e-06
-7.85412e-08
4.90669e-06
-7.48726e-08
4.90334e-06
-6.74302e-08
4.89672e-06
-5.81871e-08
4.89031e-06
-4.9724e-08
4.88488e-06
-4.51291e-08
4.87956e-06
-4.69838e-08
4.8738e-06
-5.45655e-08
4.86741e-06
-6.46128e-08
4.86076e-06
-7.23874e-08
-7.41269e-08
4.85617e-06
4.13552e-06
4.06156e-06
4.02287e-06
3.97769e-06
3.91644e-06
3.845e-06
3.76778e-06
3.68924e-06
3.61437e-06
3.54694e-06
3.48875e-06
3.43903e-06
3.3939e-06
3.34691e-06
3.29235e-06
3.22774e-06
3.15535e-06
3.08122e-06
-3.20372e-08
3.20372e-08
-3.28526e-08
8.15326e-10
1.21662e-08
-4.50187e-08
1.02825e-07
-9.06584e-08
2.25021e-07
-1.22197e-07
3.45914e-07
-1.20893e-07
4.61431e-07
-1.15517e-07
5.79473e-07
-1.18042e-07
7.15344e-07
-1.35872e-07
8.76631e-07
-1.61287e-07
1.06373e-06
-1.87096e-07
1.27253e-06
-2.088e-07
1.49315e-06
-2.20627e-07
1.71193e-06
-2.18775e-07
1.91802e-06
-2.06087e-07
2.10751e-06
-1.89495e-07
2.28187e-06
-1.74363e-07
2.44445e-06
-1.62574e-07
2.59831e-06
-1.5386e-07
2.74632e-06
-1.4801e-07
2.89114e-06
-1.44824e-07
3.03426e-06
-1.43117e-07
3.1769e-06
-1.42641e-07
3.3203e-06
-1.43396e-07
3.464e-06
-1.43708e-07
3.60848e-06
-1.44479e-07
3.75289e-06
-1.44406e-07
3.89343e-06
-1.40541e-07
4.03099e-06
-1.37563e-07
4.15919e-06
-1.28201e-07
4.27305e-06
-1.13859e-07
4.37427e-06
-1.01216e-07
4.44075e-06
-6.64824e-08
4.47583e-06
-3.5079e-08
4.45802e-06
1.78095e-08
4.34611e-06
1.11914e-07
4.16977e-06
1.76331e-07
3.82837e-06
3.41402e-07
3.34981e-06
4.78561e-07
2.72279e-06
6.27022e-07
1.70459e-06
1.0182e-06
7.18851e-07
9.85737e-07
2.03964e-08
6.98455e-07
-4.23111e-07
4.43507e-07
-5.49838e-07
1.26728e-07
-7.30957e-07
1.81118e-07
-9.97346e-07
2.66389e-07
-1.12987e-06
1.32528e-07
-1.00058e-06
-1.29292e-07
-5.6486e-07
-4.35722e-07
-4.69597e-08
-5.17901e-07
1.24558e-07
-1.71518e-07
1.60584e-07
-3.60256e-08
4.55417e-07
-2.94833e-07
8.64448e-07
-4.09031e-07
1.06149e-06
-1.97043e-07
9.60185e-07
1.01306e-07
4.16845e-07
5.4334e-07
-3.62362e-07
7.79207e-07
-1.10723e-06
7.44869e-07
-1.76836e-06
6.61132e-07
-2.33898e-06
5.70614e-07
-2.82209e-06
4.83117e-07
-3.22788e-06
4.05786e-07
-3.56957e-06
3.41688e-07
-3.86067e-06
2.91098e-07
-4.11477e-06
2.54101e-07
-4.34337e-06
2.28604e-07
-4.55697e-06
2.13602e-07
-4.76381e-06
2.06836e-07
-4.9708e-06
2.06992e-07
-5.18297e-06
2.12171e-07
-5.40408e-06
2.21103e-07
-5.63648e-06
2.32408e-07
-5.88163e-06
2.45143e-07
-6.14006e-06
2.58434e-07
-6.41164e-06
2.71575e-07
-6.69554e-06
2.8391e-07
-6.99041e-06
2.94867e-07
-7.29434e-06
3.03929e-07
-7.60494e-06
3.10599e-07
-7.91931e-06
3.14367e-07
-8.23401e-06
3.14703e-07
-8.54508e-06
3.11067e-07
-8.84799e-06
3.02917e-07
-9.13772e-06
2.8973e-07
-9.40876e-06
2.71032e-07
-9.65519e-06
2.46437e-07
-9.87087e-06
2.15678e-07
-1.00495e-05
1.7864e-07
-1.0185e-05
1.35468e-07
-1.02715e-05
8.6526e-08
-1.03042e-05
3.26722e-08
-1.02804e-05
-2.37933e-08
-1.01987e-05
-8.17105e-08
-1.00575e-05
-1.41183e-07
-9.85614e-06
-2.01347e-07
-9.59499e-06
-2.61154e-07
-9.27562e-06
-3.19363e-07
-8.90085e-06
-3.74778e-07
-8.47455e-06
-4.26296e-07
-8.0016e-06
-4.72947e-07
-7.48766e-06
-5.13941e-07
-6.93895e-06
-5.48708e-07
-6.36201e-06
-5.76944e-07
-5.76338e-06
-5.98636e-07
-5.14937e-06
-6.14006e-07
-4.52595e-06
-6.23419e-07
-3.89862e-06
-6.27326e-07
-3.27253e-06
-6.26093e-07
-2.65259e-06
-6.19937e-07
-2.04373e-06
-6.08865e-07
-1.45099e-06
-5.92742e-07
-8.79661e-07
-5.71327e-07
-3.35656e-07
-5.44006e-07
1.74744e-07
-5.104e-07
6.46007e-07
-4.71262e-07
1.07349e-06
-4.27482e-07
1.45316e-06
-3.79667e-07
1.7818e-06
-3.28647e-07
2.05733e-06
-2.75529e-07
2.27885e-06
-2.21519e-07
2.44671e-06
-1.67864e-07
2.56257e-06
-1.15851e-07
2.62914e-06
-6.65696e-08
2.64959e-06
-2.04517e-08
2.62893e-06
2.06584e-08
2.57459e-06
5.43346e-08
2.49444e-06
8.01534e-08
2.39627e-06
9.81669e-08
2.28806e-06
1.08218e-07
2.17784e-06
1.10213e-07
2.07353e-06
1.04313e-07
1.98246e-06
9.10717e-08
1.91097e-06
7.14927e-08
1.86399e-06
4.69726e-08
1.8449e-06
1.90946e-08
1.85559e-06
-1.06897e-08
1.89653e-06
-4.09435e-08
1.96673e-06
-7.01959e-08
2.06394e-06
-9.72097e-08
2.18486e-06
-1.20926e-07
2.32536e-06
-1.40495e-07
2.4809e-06
-1.55541e-07
2.64736e-06
-1.66462e-07
2.82169e-06
-1.74327e-07
3.00154e-06
-1.79847e-07
3.18293e-06
-1.81394e-07
3.35654e-06
-1.73605e-07
3.50598e-06
-1.49444e-07
3.61238e-06
-1.06405e-07
3.66397e-06
-5.15885e-08
3.66298e-06
9.9795e-10
3.62143e-06
4.1545e-08
3.55167e-06
6.97567e-08
3.46459e-06
8.70855e-08
3.37255e-06
9.20359e-08
3.28812e-06
8.44357e-08
3.21834e-06
6.97724e-08
3.16033e-06
5.80123e-08
3.10296e-06
5.7375e-08
3.03412e-06
6.88415e-08
2.94753e-06
8.65884e-08
2.84459e-06
1.02939e-07
2.73183e-06
1.12755e-07
2.61743e-06
1.14401e-07
2.50866e-06
1.08771e-07
2.41108e-06
9.75757e-08
2.3279e-06
8.3186e-08
2.26006e-06
6.78384e-08
2.20531e-06
5.47518e-08
2.15993e-06
4.53825e-08
2.11778e-06
4.21426e-08
2.07473e-06
4.30569e-08
2.02398e-06
5.07497e-08
1.96402e-06
5.99585e-08
1.88446e-06
7.95628e-08
1.78636e-06
9.80984e-08
1.64439e-06
1.41969e-07
1.77077e-07
1.46731e-06
1.29057e-07
-9.70196e-08
3.29154e-07
-1.99282e-07
5.61093e-07
-2.76957e-07
7.91734e-07
-3.21299e-07
1.00234e-06
-3.32805e-07
1.20456e-06
-3.23106e-07
1.39696e-06
-3.07925e-07
1.58259e-06
-3.0367e-07
1.75645e-06
-3.09731e-07
1.90344e-06
-3.08273e-07
2.02983e-06
-3.13486e-07
2.14551e-06
-3.24485e-07
2.24703e-06
-3.22144e-07
2.32587e-06
-2.97617e-07
2.37895e-06
-2.59162e-07
2.41085e-06
-2.21403e-07
2.42979e-06
-1.93297e-07
2.44367e-06
-1.76454e-07
2.45902e-06
-1.69214e-07
2.48079e-06
-1.69774e-07
2.51238e-06
-1.7642e-07
2.55649e-06
-1.87226e-07
2.61478e-06
-2.00931e-07
2.6876e-06
-2.16217e-07
2.7749e-06
-2.31005e-07
2.87485e-06
-2.44433e-07
2.98535e-06
-2.54905e-07
3.10554e-06
-2.6073e-07
3.22989e-06
-2.6191e-07
3.35579e-06
-2.54108e-07
3.48137e-06
-2.39436e-07
3.59769e-06
-2.17532e-07
3.70654e-06
-1.75337e-07
3.80422e-06
-1.32755e-07
3.89229e-06
-7.02652e-08
3.97128e-06
3.29298e-08
4.02361e-06
1.24004e-07
4.06062e-06
3.0439e-07
4.02021e-06
5.18965e-07
3.92626e-06
7.2097e-07
3.85137e-06
1.0931e-06
3.52946e-06
1.30765e-06
2.74703e-06
1.48088e-06
1.64094e-06
1.5496e-06
5.75609e-07
1.19206e-06
-1.42157e-07
8.98885e-07
-5.16719e-07
6.40951e-07
-7.10023e-07
3.25832e-07
-8.12573e-07
-2.67419e-08
-7.08518e-07
-5.39777e-07
-3.15944e-07
-9.10475e-07
1.59078e-08
-5.0337e-07
4.80941e-07
-5.01058e-07
8.57079e-07
-6.70972e-07
5.13322e-07
-6.52738e-08
-3.65985e-07
6.82264e-07
-1.30135e-06
1.03667e-06
-2.00557e-06
1.24757e-06
-2.52986e-06
1.30349e-06
-3.01153e-06
1.22654e-06
-3.44323e-06
1.09283e-06
-3.81672e-06
9.44102e-07
-4.13725e-06
8.03656e-07
-4.41302e-06
6.81553e-07
-4.65386e-06
5.82529e-07
-4.86794e-06
5.05177e-07
-5.06315e-06
4.49305e-07
-5.24594e-06
4.11398e-07
-5.42213e-06
3.89796e-07
-5.59637e-06
3.81075e-07
-5.77235e-06
3.82974e-07
-5.95281e-06
3.92631e-07
-6.13972e-06
4.08014e-07
-6.33445e-06
4.27136e-07
-6.5378e-06
4.48488e-07
-6.75e-06
4.70638e-07
-6.9708e-06
4.92378e-07
-7.19955e-06
5.12659e-07
-7.43523e-06
5.30538e-07
-7.6764e-06
5.45106e-07
-7.92126e-06
5.55455e-07
-8.16755e-06
5.60662e-07
-8.41262e-06
5.59769e-07
-8.65335e-06
5.51802e-07
-8.88621e-06
5.35771e-07
-9.1072e-06
5.10716e-07
-9.31193e-06
4.75763e-07
-9.49568e-06
4.30189e-07
-9.6535e-06
3.73497e-07
-9.78035e-06
3.05494e-07
-9.87125e-06
2.26368e-07
-9.92147e-06
1.36744e-07
-9.9265e-06
3.77002e-08
-9.88059e-06
-6.97043e-08
-9.77853e-06
-1.83764e-07
-9.61772e-06
-3.01996e-07
-9.39707e-06
-4.22002e-07
-9.11693e-06
-5.4129e-07
-8.77895e-06
-6.57339e-07
-8.38603e-06
-7.67705e-07
-7.94218e-06
-8.70138e-07
-7.45247e-06
-9.62662e-07
-6.92276e-06
-1.04365e-06
-6.35952e-06
-1.11195e-06
-5.76952e-06
-1.16694e-06
-5.15954e-06
-1.20862e-06
-4.53607e-06
-1.23748e-06
-3.90512e-06
-1.25437e-06
-3.27217e-06
-1.26028e-06
-2.64223e-06
-1.25603e-06
-2.02003e-06
-1.24214e-06
-1.41026e-06
-1.21863e-06
-8.18089e-07
-1.18492e-06
-2.49139e-07
-1.14028e-06
2.9117e-07
-1.08431e-06
7.97991e-07
-1.01722e-06
1.26638e-06
-9.39649e-07
1.69141e-06
-8.52515e-07
2.06893e-06
-7.57187e-07
2.39577e-06
-6.55482e-07
2.66981e-06
-5.4957e-07
2.89008e-06
-4.41792e-07
3.0568e-06
-3.34588e-07
3.17137e-06
-2.30421e-07
3.2365e-06
-1.31701e-07
3.25711e-06
-4.10547e-08
3.23851e-06
3.9261e-08
3.1854e-06
1.07443e-07
3.10385e-06
1.61699e-07
3.00142e-06
2.00602e-07
2.88645e-06
2.23181e-07
2.76767e-06
2.28991e-07
2.65372e-06
2.18271e-07
2.55269e-06
1.92101e-07
2.47168e-06
1.52496e-07
2.41631e-06
1.02346e-07
2.39023e-06
4.51712e-08
2.39481e-06
-1.5268e-08
2.42945e-06
-7.55763e-08
2.4924e-06
-1.33152e-07
2.58132e-06
-1.86125e-07
2.69347e-06
-2.33078e-07
2.82578e-06
-2.72802e-07
2.97458e-06
-3.04347e-07
3.13551e-06
-3.27393e-07
3.30372e-06
-3.42537e-07
3.47472e-06
-3.50846e-07
3.64577e-06
-3.52441e-07
3.81734e-06
-3.45175e-07
3.99346e-06
-3.25567e-07
4.17945e-06
-2.9239e-07
4.37649e-06
-2.48636e-07
4.5749e-06
-1.97405e-07
4.75401e-06
-1.37564e-07
4.89148e-06
-6.77227e-08
4.97357e-06
5.00111e-09
5.00146e-06
6.41466e-08
4.99093e-06
9.49602e-08
4.96405e-06
9.66599e-08
4.93711e-06
8.49464e-08
4.91273e-06
8.17597e-08
4.88197e-06
9.95965e-08
4.83443e-06
1.34136e-07
4.76761e-06
1.69755e-07
4.68852e-06
1.91842e-07
4.60862e-06
1.94302e-07
4.53727e-06
1.80118e-07
4.4794e-06
1.55453e-07
4.43478e-06
1.278e-07
4.4008e-06
1.0182e-07
4.37179e-06
8.3758e-08
4.34376e-06
7.34115e-08
4.31078e-06
7.51249e-08
4.2732e-06
8.06392e-08
4.22557e-06
9.83799e-08
4.17313e-06
1.12398e-07
4.10422e-06
1.48477e-07
4.02819e-06
1.74123e-07
3.92034e-06
2.49817e-07
3.07061e-07
3.79036e-06
2.18561e-07
-3.1558e-07
5.52806e-07
-5.33528e-07
8.49946e-07
-5.74097e-07
1.08496e-06
-5.56315e-07
1.26148e-06
-5.09327e-07
1.38251e-06
-4.44137e-07
1.47949e-06
-4.04901e-07
1.5773e-06
-4.01482e-07
1.64817e-06
-3.80598e-07
1.62985e-06
-2.89955e-07
1.52443e-06
-2.0806e-07
1.38242e-06
-1.82477e-07
1.2172e-06
-1.56931e-07
1.04015e-06
-1.20559e-07
8.71393e-07
-9.04094e-08
7.2678e-07
-7.67896e-08
6.15169e-07
-8.16864e-08
5.3967e-07
-1.00954e-07
4.99418e-07
-1.28962e-07
4.91593e-07
-1.61949e-07
5.13009e-07
-1.97836e-07
5.60992e-07
-2.35209e-07
6.33238e-07
-2.73177e-07
7.27809e-07
-3.10788e-07
8.42789e-07
-3.45984e-07
9.752e-07
-3.76844e-07
1.12261e-06
-4.02318e-07
1.28294e-06
-4.2106e-07
1.45105e-06
-4.3002e-07
1.62469e-06
-4.2774e-07
1.80003e-06
-4.14779e-07
1.97151e-06
-3.8901e-07
2.14577e-06
-3.49595e-07
2.31489e-06
-3.01884e-07
2.47282e-06
-2.28192e-07
2.64099e-06
-1.35239e-07
2.81529e-06
-5.03008e-08
3.01544e-06
1.04244e-07
3.23893e-06
2.95473e-07
3.49007e-06
4.69834e-07
3.8036e-06
7.79567e-07
3.99825e-06
1.113e-06
4.03428e-06
1.44484e-06
3.86634e-06
1.71754e-06
3.28079e-06
1.77761e-06
2.48347e-06
1.69621e-06
1.67611e-06
1.44831e-06
9.23133e-07
1.07881e-06
2.98792e-07
5.97599e-07
-2.38227e-07
-2.75795e-09
-5.04801e-07
-6.43901e-07
-2.2287e-07
-7.853e-07
1.01472e-07
-8.254e-07
-3.02529e-07
-2.66972e-07
-1.11238e-06
7.44572e-07
-1.7582e-06
1.32809e-06
-2.30057e-06
1.57904e-06
-2.7204e-06
1.6674e-06
-3.01509e-06
1.59818e-06
-3.25868e-06
1.47013e-06
-3.472e-06
1.30615e-06
-3.66786e-06
1.13996e-06
-3.84927e-06
9.85065e-07
-4.01793e-06
8.50218e-07
-4.17532e-06
7.39917e-07
-4.32361e-06
6.53465e-07
-4.46565e-06
5.91346e-07
-4.60497e-06
5.50715e-07
-4.74492e-06
5.29751e-07
-4.88867e-06
5.24825e-07
-5.03862e-06
5.32917e-07
-5.19665e-06
5.50663e-07
-5.36405e-06
5.75412e-07
-5.54164e-06
6.04732e-07
-5.72973e-06
6.36575e-07
-5.92822e-06
6.69132e-07
-6.13681e-06
7.00961e-07
-6.35493e-06
7.30781e-07
-6.58174e-06
7.57352e-07
-6.81607e-06
7.79436e-07
-7.05639e-06
7.95771e-07
-7.30076e-06
8.05028e-07
-7.54679e-06
8.05801e-07
-7.79158e-06
7.96591e-07
-8.03164e-06
7.75832e-07
-8.26287e-06
7.41948e-07
-8.48054e-06
6.93431e-07
-8.67931e-06
6.28963e-07
-8.85336e-06
5.47546e-07
-8.9965e-06
4.48639e-07
-9.10242e-06
3.3228e-07
-9.16486e-06
1.99187e-07
-9.17796e-06
5.07973e-08
-9.13695e-06
-1.10708e-07
-9.03804e-06
-2.82682e-07
-8.87824e-06
-4.6179e-07
-8.65597e-06
-6.44271e-07
-8.37115e-06
-8.26111e-07
-8.02522e-06
-1.00327e-06
-7.62106e-06
-1.17186e-06
-7.1629e-06
-1.3283e-06
-6.65612e-06
-1.46944e-06
-6.10714e-06
-1.59263e-06
-5.52312e-06
-1.69596e-06
-4.91168e-06
-1.77839e-06
-4.28047e-06
-1.83982e-06
-3.63687e-06
-1.88107e-06
-2.98766e-06
-1.90359e-06
-2.33896e-06
-1.90897e-06
-1.69648e-06
-1.89851e-06
-1.06575e-06
-1.87288e-06
-4.52445e-07
-1.83193e-06
1.37749e-07
-1.77511e-06
6.99432e-07
-1.70196e-06
1.22727e-06
-1.61215e-06
1.71591e-06
-1.50587e-06
2.16055e-06
-1.38429e-06
2.55752e-06
-1.24948e-06
2.90443e-06
-1.1041e-06
3.20008e-06
-9.51127e-07
3.44406e-06
-7.93554e-07
3.63665e-06
-6.34375e-07
3.77868e-06
-4.76623e-07
3.87175e-06
-3.23491e-07
3.91812e-06
-1.78073e-07
3.92053e-06
-4.34642e-08
3.88314e-06
7.66487e-08
3.81179e-06
1.78796e-07
3.71317e-06
2.60324e-07
3.59473e-06
3.19042e-07
3.46459e-06
3.53318e-07
3.33129e-06
3.62296e-07
3.20342e-06
3.4614e-07
3.08919e-06
3.06329e-07
2.9958e-06
2.45881e-07
2.9288e-06
1.69352e-07
2.89153e-06
8.24346e-08
2.88514e-06
-8.87126e-09
2.9088e-06
-9.92406e-08
2.96038e-06
-1.84735e-07
3.03703e-06
-2.62772e-07
3.1353e-06
-3.31345e-07
3.25074e-06
-3.88238e-07
3.37749e-06
-4.31106e-07
3.50874e-06
-4.58636e-07
3.63823e-06
-4.72024e-07
3.7625e-06
-4.75122e-07
3.8824e-06
-4.72336e-07
4.00292e-06
-4.65699e-07
4.13147e-06
-4.54112e-07
4.27476e-06
-4.35684e-07
4.43557e-06
-4.09446e-07
4.611e-06
-3.72836e-07
4.79246e-06
-3.19025e-07
4.96538e-06
-2.4064e-07
5.10888e-06
-1.38499e-07
5.20088e-06
-2.78556e-08
5.23042e-06
6.5421e-08
5.20783e-06
1.19252e-07
5.16281e-06
1.29957e-07
5.12916e-06
1.15414e-07
5.1253e-06
1.03454e-07
5.1451e-06
1.14334e-07
5.16527e-06
1.49586e-07
5.16268e-06
1.94433e-07
5.12849e-06
2.28496e-07
5.07006e-06
2.38545e-07
5.00316e-06
2.22353e-07
4.94251e-06
1.88453e-07
4.89697e-06
1.47363e-07
4.86851e-06
1.12216e-07
4.85353e-06
8.83865e-08
4.84493e-06
8.37314e-08
4.8347e-06
9.08665e-08
4.81726e-06
1.15819e-07
4.78882e-06
1.40843e-07
4.75153e-06
1.85761e-07
4.70239e-06
2.23268e-07
4.6511e-06
3.01107e-07
3.73995e-07
4.58416e-06
3.63954e-07
-6.79535e-07
6.44013e-07
-8.13586e-07
8.03532e-07
-7.33617e-07
8.95567e-07
-6.4835e-07
9.13601e-07
-5.27361e-07
8.21079e-07
-3.51616e-07
6.64455e-07
-2.48277e-07
4.67996e-07
-2.05023e-07
2.03174e-07
-1.15776e-07
-9.08192e-08
4.0383e-09
-3.55708e-07
5.68297e-08
-5.72929e-07
3.47442e-08
-7.40053e-07
1.01923e-08
-8.67237e-07
6.62492e-09
-9.66722e-07
9.07643e-09
-1.04856e-06
5.05055e-09
-1.11832e-06
-1.19335e-08
-1.17577e-06
-4.35025e-08
-1.21686e-06
-8.78718e-08
-1.23649e-06
-1.42317e-07
-1.23021e-06
-2.04112e-07
-1.19469e-06
-2.70737e-07
-1.128e-06
-3.39863e-07
-1.0298e-06
-4.08992e-07
-9.00576e-07
-4.75204e-07
-7.41869e-07
-5.35551e-07
-5.56876e-07
-5.87312e-07
-3.49768e-07
-6.28168e-07
-1.24936e-07
-6.54851e-07
1.11797e-07
-6.64474e-07
3.53038e-07
-6.5602e-07
5.95877e-07
-6.3185e-07
8.39128e-07
-5.92846e-07
1.07545e-06
-5.38204e-07
1.31226e-06
-4.65001e-07
1.561e-06
-3.83981e-07
1.80585e-06
-2.95156e-07
2.07282e-06
-1.62726e-07
2.38118e-06
-1.28857e-08
2.71019e-06
1.40831e-07
3.09325e-06
3.96504e-07
3.50564e-06
7.00613e-07
3.94104e-06
1.00944e-06
4.30986e-06
1.34872e-06
4.43479e-06
1.65268e-06
4.29715e-06
1.83384e-06
3.87664e-06
1.86882e-06
3.22789e-06
1.72756e-06
2.48702e-06
1.33847e-06
1.58299e-06
9.01274e-07
6.56453e-07
2.82638e-07
2.01254e-07
-3.30101e-07
-1.69282e-07
-4.54865e-07
-7.83356e-07
3.47103e-07
-1.4093e-06
1.37052e-06
-1.91889e-06
1.83768e-06
-2.30173e-06
1.96188e-06
-2.58361e-06
1.94927e-06
-2.78987e-06
1.80443e-06
-2.95459e-06
1.63485e-06
-3.09355e-06
1.44512e-06
-3.22166e-06
1.26807e-06
-3.34219e-06
1.10559e-06
-3.45777e-06
9.65803e-07
-3.56856e-06
8.50707e-07
-3.67633e-06
7.61228e-07
-3.78274e-06
6.9776e-07
-3.89083e-06
6.58805e-07
-4.00349e-06
6.42406e-07
-4.12373e-06
6.45073e-07
-4.2538e-06
6.62979e-07
-4.39517e-06
6.92039e-07
-4.54851e-06
7.28752e-07
-4.71386e-06
7.70083e-07
-4.89106e-06
8.13773e-07
-5.07999e-06
8.58066e-07
-5.28053e-06
9.01492e-07
-5.49239e-06
9.42641e-07
-5.71522e-06
9.80183e-07
-5.94851e-06
1.01273e-06
-6.19153e-06
1.03879e-06
-6.44323e-06
1.05673e-06
-6.70206e-06
1.06463e-06
-6.96582e-06
1.06035e-06
-7.23146e-06
1.04147e-06
-7.49496e-06
1.00545e-06
-7.7512e-06
9.49673e-07
-7.99396e-06
8.71719e-07
-8.21601e-06
7.69593e-07
-8.40938e-06
6.42012e-07
-8.56574e-06
4.88644e-07
-8.67683e-06
3.10274e-07
-8.7349e-06
1.0887e-07
-8.73314e-06
-1.1247e-07
-8.66597e-06
-3.49849e-07
-8.5296e-06
-5.98165e-07
-8.32213e-06
-8.51732e-07
-8.0436e-06
-1.10464e-06
-7.69575e-06
-1.35112e-06
-7.28188e-06
-1.58573e-06
-6.80667e-06
-1.80352e-06
-6.27597e-06
-2.00014e-06
-5.69665e-06
-2.17196e-06
-5.07635e-06
-2.31627e-06
-4.42323e-06
-2.4315e-06
-3.74556e-06
-2.51749e-06
-3.05126e-06
-2.57537e-06
-2.34758e-06
-2.60726e-06
-1.64099e-06
-2.61557e-06
-9.37313e-07
-2.60218e-06
-2.42482e-07
-2.56771e-06
4.37042e-07
-2.51146e-06
1.09394e-06
-2.43201e-06
1.71936e-06
-2.32738e-06
2.30301e-06
-2.1958e-06
2.83434e-06
-2.03719e-06
3.30398e-06
-1.85393e-06
3.70529e-06
-1.65079e-06
4.03535e-06
-1.43417e-06
4.29521e-06
-1.21098e-06
4.48902e-06
-9.87366e-07
4.62258e-06
-7.67932e-07
4.70194e-06
-5.55982e-07
4.73248e-06
-3.54037e-07