/*--------------------------------*- C++ -*----------------------------------*\
  =========                 |
  \\      /  F ield         | OpenFOAM: The Open Source CFD Toolbox
   \\    /   O peration     | Website:  https://openfoam.org
    \\  /    A nd           | Version:  6
     \\/     M anipulation  |
\*---------------------------------------------------------------------------*/
FoamFile
{
    version     2.0;
    format      ascii;
    class       volScalarField;
    location    "0.05";
    object      s_0;
}
// * * * * * * * * * * * * * * * * * * * * * * * * * * * * * * * * * * * * * //

dimensions      [0 0 0 0 0 0 0];

internalField   nonuniform List<scalar> 
12225
(
1
1
1
1
1
1
1
1
1
1
1
1
1
1
1
1
1
1
1
1
1
1
1
1
1
1
1
1
1
1
1
1
1
1
1
1
1
1
1
1
1
1
1
1
1
1
1
1
1
1
1
1
1
1
1
1
1
1
1
1
1
1
1
1
1
1
1
1
1
1
1
1
1
1
1
1
1
1
1
1
1
1
1
1
1
1
1
1
1
1
1
1
1
1
1
1
1
1
1
1
1
1
1
1
1
1
1
1
1
1
1
1
1
1
1
1
1
1
1
1
1
1
1
1
1
1
1
1
1
1
1
1
1
1
1
1
1
1
1
1
1
1
1
1
1
1
1
1
1
1
1
1
1
1
1
1
1
1
1
1
1
1
1
1
1
1
1
1
1
1
1
1
1
1
1
1
1
1
1
1
1
1
1
1
1
1
1
1
1
1
1
1
1
1
1
1
1
1
1
1
1
1
1
1
1
1
1
1
1
1
1
1
1
1
1
1
1
1
1
1
1
1
1
1
1
1
1
1
1
1
1
1
1
1
1
1
1
1
1
1
1
1
1
1
1
1
1
1
1
1
1
1
1
1
1
1
1
1
1
1
1
1
1
1
1
1
1
1
1
1
1
1
1
1
1
1
1
1
1
1
1
1
1
1
1
1
1
1
1
1
1
1
1
1
1
1
1
1
1
1
1
1
1
1
1
1
1
1
1
1
1
1
1
1
1
1
1
1
1
1
1
1
1
1
1
1
1
1
1
1
1
1
1
1
1
1
1
1
1
1
1
1
1
1
1
1
1
1
1
1
1
1
1
1
1
1
1
1
1
1
1
1
1
1
1
1
1
1
1
1
1
1
1
1
1
1
1
1
1
1
1
1
1
1
1
1
1
1
1
1
1
1
1
1
1
1
1
1
1
1
1
1
1
1
1
1
1
1
1
1
1
1
1
1
1
1
1
1
1
1
1
1
1
1
1
1
1
1
1
1
1
1
1
1
1
1
1
1
1
1
1
1
1
1
1
1
1
1
1
1
1
1
1
1
1
1
1
1
1
1
1
1
1
1
1
1
1
1
1
1
1
1
1
1
1
1
1
1
1
1
1
1
1
1
1
1
1
1
1
1
1
1
1
1
1
1
1
1
1
1
1
1
1
1
1
1
1
1
1
1
1
1
1
1
1
1
1
1
1
1
1
1
1
1
1
1
1
1
1
1
1
1
1
1
1
1
1
1
1
1
0.679603
0.74814
0.747016
0.731896
0.70941
0.688125
0.677809
0.669799
0.668022
0.66833
0.669762
0.673968
0.678423
0.680936
0.682836
0.684533
0.685522
0.686227
0.687374
0.688437
0.689105
0.689438
0.689422
0.689257
0.688869
0.688498
0.68833
0.688337
0.688464
0.688974
0.689929
0.692048
0.694237
0.69688
0.70288
0.7063
0.71106
0.717937
0.722363
0.732875
0.744051
0.717436
0.577178
0.522096
0.527074
0.551545
0.589626
0.622584
0.64353
0.656667
0.662301
0.647773
0.614684
0.608772
0.624709
0.65081
0.706513
0.812938
0.867392
0.885931
0.894896
0.899392
0.90243
0.905305
0.907825
0.908994
0.910024
0.911545
0.912905
0.913809
0.914314
0.914688
0.914881
0.914927
0.914932
0.914869
0.914666
0.914313
0.913852
0.913299
0.91256
0.911525
0.910277
0.909057
0.907882
0.90644
0.904567
0.902505
0.90045
0.898316
0.896041
0.893574
0.890789
0.887759
0.885381
0.883559
0.882139
0.880836
0.879794
0.879333
0.879222
0.879734
0.88035
0.881203
0.882601
0.884478
0.886779
0.889327
0.892187
0.895883
0.899379
0.903234
0.90731
0.911004
0.914865
0.91824
0.92139
0.92451
0.927551
0.930479
0.933271
0.935915
0.938392
0.940666
0.942769
0.944659
0.945966
0.947027
0.948023
0.948999
0.949961
0.950895
0.95178
0.952612
0.953398
0.954127
0.954774
0.955325
0.955833
0.956325
0.956807
0.957254
0.957607
0.957792
0.957793
0.957444
0.956078
0.952354
0.945409
0.93548
0.923433
0.911823
0.903151
0.897681
0.894595
0.893303
0.893068
0.8933
0.894183
0.894538
0.894465
0.893545
0.888596
0.86708
0.782519
0.558249
0.345443
0.193309
0.098305
0.0458748
0.0198277
0.00798006
0.00298891
0.00103759
0.000350342
0.000179076
0.000106513
5.96751e-05
3.16903e-05
-0.00660186
0.595998
0.611888
0.617056
0.625309
0.630985
0.633822
0.634669
0.637015
0.641865
0.64533
0.650929
0.654744
0.654637
0.653756
0.651673
0.648484
0.643864
0.638279
0.631863
0.625301
0.618019
0.609661
0.600314
0.590145
0.580103
0.570903
0.563712
0.557508
0.55174
0.549283
0.549265
0.550382
0.554433
0.558648
0.566339
0.580525
0.591307
0.618184
0.640073
0.669206
0.716674
0.720411
0.706096
0.67007
0.574277
0.521905
0.529605
0.586997
0.638087
0.665728
0.68995
0.671197
0.632981
0.65353
0.692525
0.801581
0.828739
0.852779
0.864796
0.868279
0.864561
0.858847
0.854353
0.851459
0.849899
0.849133
0.848779
0.848666
0.848927
0.848914
0.848913
0.848804
0.848121
0.846487
0.844099
0.840844
0.83686
0.833296
0.829773
0.825158
0.819802
0.814567
0.809684
0.804852
0.799713
0.794884
0.790795
0.786638
0.782953
0.780373
0.77848
0.777429
0.777004
0.776919
0.777225
0.777693
0.778218
0.77858
0.778703
0.778718
0.778606
0.778486
0.778171
0.777638
0.776899
0.776402
0.775938
0.775509
0.775204
0.775357
0.776091
0.777786
0.780726
0.784948
0.790842
0.798548
0.807892
0.818449
0.829323
0.839526
0.848529
0.856386
0.863625
0.870195
0.875997
0.881075
0.885906
0.890273
0.894074
0.897362
0.90023
0.902787
0.905149
0.90744
0.909774
0.912234
0.914874
0.917714
0.920717
0.923898
0.927302
0.931113
0.935513
0.940542
0.946048
0.951963
0.95839
0.965466
0.97259
0.978107
0.98108
0.981958
0.981366
0.976847
0.960207
0.938541
0.923212
0.914432
0.910511
0.909183
0.908532
0.907228
0.904271
0.901083
0.894701
0.880624
0.845641
0.808303
0.786534
0.773479
0.748304
0.704295
0.646675
0.594056
0.553715
0.53037
0.514882
0.497381
0.462236
0.32504
0.469297
0.530147
0.596163
0.631157
0.647481
0.66183
0.666076
0.670884
0.670301
0.667912
0.662095
0.650919
0.635678
0.615597
0.592618
0.569968
0.54813
0.528035
0.509003
0.491031
0.473301
0.456937
0.441424
0.427583
0.416771
0.4079
0.402507
0.401073
0.401467
0.403579
0.408955
0.421916
0.435496
0.446169
0.466165
0.485236
0.495684
0.517109
0.544068
0.562812
0.604753
0.672701
0.69679
0.696143
0.684414
0.648082
0.569722
0.548918
0.541898
0.600694
0.679163
0.701002
0.678086
0.746694
0.803281
0.815604
0.824144
0.827941
0.803309
0.782292
0.762156
0.748035
0.740298
0.735775
0.733902
0.733378
0.734583
0.73659
0.738212
0.740704
0.742279
0.744036
0.74529
0.74589
0.746475
0.746569
0.74648
0.746381
0.746362
0.746506
0.74685
0.74725
0.747838
0.748673
0.750097
0.751926
0.754236
0.756958
0.76012
0.7639
0.768529
0.773995
0.780256
0.787895
0.795686
0.802946
0.809263
0.814319
0.817838
0.819966
0.820788
0.820065
0.8178
0.814217
0.809167
0.802965
0.795788
0.787941
0.779834
0.772106
0.765407
0.759096
0.753059
0.747796
0.743707
0.741134
0.740205
0.740654
0.743801
0.75097
0.761581
0.775011
0.789784
0.8046
0.818598
0.83043
0.839764
0.847343
0.853559
0.85865
0.86285
0.866401
0.869549
0.872514
0.875483
0.878591
0.881927
0.885528
0.8894
0.893516
0.897809
0.902047
0.905974
0.909462
0.912555
0.91548
0.918846
0.923215
0.929733
0.940042
0.953593
0.967343
0.977878
0.98299
0.984199
0.983397
0.977015
0.957029
0.941034
0.933021
0.929751
0.92849
0.927664
0.926306
0.923148
0.91386
0.902109
0.895194
0.893164
0.89335
0.895751
0.900544
0.901551
0.901045
0.896984
0.88831
0.878136
0.871139
0.862304
0.81583
0.716974
0.737417
0.732418
0.727412
0.718605
0.708756
0.695795
0.674703
0.651622
0.60351
0.549111
0.526312
0.508075
0.493194
0.479294
0.464468
0.448728
0.432339
0.415382
0.39907
0.383864
0.37079
0.359917
0.351839
0.346689
0.344587
0.344096
0.344617
0.347042
0.352551
0.363713
0.375977
0.388467
0.402778
0.419648
0.432244
0.442028
0.460993
0.484975
0.504669
0.52266
0.556291
0.63115
0.674862
0.685675
0.684326
0.67211
0.639407
0.588726
0.591565
0.616514
0.695912
0.70961
0.774912
0.800036
0.80316
0.78097
0.751422
0.727374
0.712939
0.70414
0.698598
0.696052
0.69505
0.694927
0.696959
0.700177
0.703489
0.706898
0.7104
0.713806
0.717386
0.720945
0.724221
0.727514
0.73089
0.734408
0.737966
0.741557
0.745284
0.749257
0.754481
0.760927
0.769144
0.779559
0.792445
0.808067
0.827076
0.849092
0.868612
0.886793
0.903193
0.915792
0.924754
0.930727
0.934518
0.936958
0.938227
0.938817
0.939066
0.939156
0.938988
0.93875
0.938072
0.937021
0.93508
0.931938
0.927085
0.919942
0.909667
0.895262
0.877199
0.855412
0.830458
0.803555
0.77708
0.75555
0.740758
0.730223
0.724037
0.721667
0.721643
0.723677
0.728646
0.736065
0.746099
0.757649
0.769485
0.780936
0.791672
0.80156
0.810608
0.818877
0.82652
0.833777
0.840882
0.848236
0.856045
0.864453
0.873585
0.883268
0.892849
0.901841
0.909912
0.9165
0.921205
0.923654
0.924176
0.9239
0.923927
0.926939
0.937011
0.950657
0.965902
0.977916
0.98329
0.984018
0.982162
0.971002
0.954606
0.946373
0.943382
0.94253
0.942067
0.941159
0.938616
0.92939
0.913867
0.904522
0.901042
0.900693
0.901876
0.908581
0.923544
0.934383
0.942752
0.950194
0.955355
0.955797
0.948
0.775334
0.756685
0.712639
0.677204
0.635613
0.591284
0.562603
0.54672
0.538536
0.527088
0.50819
0.488789
0.470482
0.455717
0.439548
0.42339
0.408625
0.394159
0.381828
0.371858
0.363754
0.357674
0.354438
0.354058
0.354957
0.356523
0.358389
0.361316
0.366594
0.373998
0.381523
0.390201
0.399212
0.406875
0.413314
0.418765
0.42492
0.434535
0.447958
0.463851
0.481521
0.499051
0.524396
0.587139
0.648351
0.67433
0.680949
0.679244
0.672234
0.647318
0.645913
0.669546
0.70851
0.76639
0.787632
0.770804
0.732512
0.713475
0.699751
0.69263
0.689581
0.688459
0.688226
0.688922
0.691097
0.694454
0.698861
0.703381
0.707856
0.712319
0.716685
0.721262
0.726247
0.731497
0.737189
0.743765
0.751635
0.761093
0.772782
0.78791
0.80772
0.831714
0.855976
0.880622
0.90327
0.924781
0.941832
0.953626
0.959844
0.963474
0.965145
0.965697
0.965354
0.962464
0.959642
0.956192
0.952761
0.949542
0.946994
0.944991
0.944025
0.943718
0.9449
0.946709
0.949582
0.952744
0.956083
0.959198
0.961898
0.964052
0.965496
0.966118
0.965774
0.962814
0.954854
0.939083
0.910823
0.869536
0.822122
0.777111
0.74617
0.728284
0.720005
0.717558
0.717329
0.717904
0.719925
0.723174
0.726858
0.731037
0.735519
0.740164
0.744971
0.750168
0.756074
0.763083
0.771324
0.780781
0.791298
0.802761
0.815704
0.831565
0.851041
0.873638
0.897332
0.917883
0.932156
0.941561
0.946762
0.948072
0.946074
0.943103
0.94333
0.948469
0.963232
0.976228
0.983159
0.984594
0.983493
0.975555
0.962679
0.956648
0.954824
0.954427
0.954075
0.95316
0.950046
0.93832
0.919839
0.90838
0.903469
0.902633
0.903577
0.909739
0.927539
0.943909
0.956324
0.964281
0.974802
0.976253
0.771918
0.696128
0.635277
0.611035
0.581281
0.547268
0.534151
0.526945
0.517621
0.505898
0.49173
0.477137
0.466975
0.456764
0.448266
0.443436
0.441792
0.441899
0.443771
0.447365
0.451659
0.455523
0.459825
0.463468
0.467123
0.469543
0.470728
0.471473
0.472504
0.474726
0.475165
0.47673
0.476492
0.473597
0.468917
0.462977
0.459139
0.458272
0.45965
0.461784
0.46222
0.464033
0.470939
0.489997
0.538331
0.603515
0.654978
0.674049
0.681099
0.678131
0.675239
0.679963
0.700698
0.750459
0.777677
0.748189
0.718238
0.705906
0.695621
0.690809
0.689193
0.688927
0.690152
0.693154
0.698605
0.706627
0.716725
0.727307
0.73667
0.745146
0.75384
0.761378
0.771443
0.78414
0.799271
0.816501
0.836906
0.858695
0.881602
0.904043
0.923725
0.938304
0.951031
0.961072
0.967628
0.970763
0.971924
0.97199
0.969394
0.964893
0.95967
0.951261
0.939675
0.925127
0.910171
0.895169
0.881346
0.869228
0.859535
0.850918
0.845672
0.843654
0.846138
0.851833
0.861899
0.87485
0.890236
0.906122
0.920526
0.934078
0.946703
0.957747
0.966563
0.97329
0.978122
0.980878
0.981633
0.980039
0.970964
0.94518
0.892348
0.827244
0.770952
0.739049
0.726344
0.723712
0.724154
0.725449
0.727005
0.728301
0.729288
0.730049
0.731061
0.733069
0.736236
0.740833
0.747206
0.755377
0.765133
0.776341
0.788425
0.800227
0.811842
0.82466
0.841463
0.865452
0.895821
0.924508
0.94521
0.957405
0.963701
0.965716
0.965068
0.962725
0.962702
0.966928
0.9785
0.984988
0.986314
0.985377
0.979149
0.971298
0.968228
0.967535
0.967313
0.966837
0.965482
0.961221
0.946524
0.926061
0.913814
0.908994
0.908401
0.909751
0.917645
0.937423
0.954837
0.965315
0.974759
0.980851
0.765731
0.675905
0.625991
0.601835
0.576201
0.56035
0.553627
0.549959
0.546851
0.545338
0.546422
0.552902
0.567027
0.583474
0.605228
0.626426
0.643268
0.663781
0.677517
0.691057
0.703004
0.710368
0.713364
0.711787
0.70479
0.69221
0.677823
0.665672
0.657263
0.650414
0.642729
0.634484
0.627106
0.617413
0.607864
0.59882
0.595648
0.596712
0.596832
0.595732
0.58124
0.55513
0.532283
0.520862
0.527634
0.560722
0.604365
0.647765
0.673233
0.682536
0.685105
0.689482
0.701434
0.737412
0.771842
0.743347
0.717632
0.706296
0.697012
0.693351
0.692848
0.695467
0.701666
0.713398
0.732834
0.761416
0.789984
0.814912
0.834108
0.849218
0.860134
0.867982
0.878661
0.88995
0.902405
0.915394
0.928631
0.941859
0.952061
0.960959
0.966646
0.969867
0.971317
0.97171
0.970558
0.968425
0.963469
0.954432
0.940074
0.919837
0.893714
0.861738
0.829947
0.799199
0.769987
0.745738
0.725528
0.711017
0.705809
0.704648
0.70536
0.708087
0.712218
0.71672
0.72244
0.729887
0.740646
0.755685
0.776669
0.80241
0.831891
0.864071
0.896038
0.922979
0.946212
0.964659
0.97747
0.985174
0.989114
0.990173
0.988829
0.978934
0.94122
0.857136
0.784174
0.746316
0.73274
0.730137
0.731138
0.737154
0.744424
0.749307
0.751632
0.752334
0.753264
0.755681
0.758364
0.760279
0.762578
0.768143
0.781153
0.794761
0.807495
0.81955
0.831429
0.845103
0.863013
0.887484
0.916698
0.943465
0.961567
0.971088
0.974995
0.975684
0.975265
0.975006
0.976356
0.982963
0.98795
0.988889
0.988212
0.984417
0.981087
0.980221
0.98009
0.979857
0.979136
0.977014
0.970488
0.952968
0.936148
0.925823
0.921574
0.921044
0.922711
0.931796
0.951694
0.965685
0.97553
0.981998
0.755307
0.668323
0.640157
0.627649
0.62266
0.632024
0.649363
0.66722
0.695467
0.725398
0.758975
0.791255
0.819192
0.843583
0.863581
0.880881
0.896104
0.906981
0.917115
0.922517
0.925544
0.926633
0.925192
0.920449
0.911945
0.898687
0.878936
0.851349
0.820161
0.79259
0.763528
0.733566
0.713358
0.700718
0.692597
0.688703
0.688043
0.695354
0.710876
0.74561
0.785001
0.780712
0.752118
0.703836
0.643271
0.619285
0.622471
0.643807
0.671044
0.685374
0.690821
0.694675
0.703178
0.730094
0.766493
0.74462
0.71903
0.708707
0.702892
0.701888
0.704385
0.715056
0.73605
0.770156
0.806835
0.838565
0.869163
0.893345
0.912305
0.925646
0.931172
0.935548
0.941632
0.947111
0.954047
0.96029
0.965476
0.969781
0.97191
0.972731
0.97252
0.971222
0.969572
0.965389
0.95731
0.94359
0.921505
0.889597
0.848611
0.804958
0.759084
0.716747
0.679129
0.650406
0.638555
0.633961
0.632868
0.634884
0.641241
0.648888
0.657891
0.666769
0.675505
0.683023
0.688727
0.692728
0.695494
0.698044
0.701299
0.706373
0.714771
0.728761
0.751946
0.788854
0.835524
0.884502
0.923812
0.953818
0.974239
0.98644
0.992449
0.994573
0.994477
0.989985
0.964352
0.872462
0.791716
0.752891
0.739766
0.738251
0.739627
0.745994
0.758373
0.773094
0.788009
0.799771
0.807631
0.812316
0.814101
0.81348
0.811886
0.81201
0.815054
0.827547
0.840167
0.849452
0.860863
0.878589
0.902129
0.927639
0.950697
0.967318
0.976536
0.980365
0.981368
0.981479
0.98164
0.983088
0.988181
0.991447
0.992185
0.99204
0.990996
0.989808
0.989409
0.989104
0.988454
0.986953
0.983097
0.97129
0.95379
0.940672
0.933442
0.931098
0.931159
0.934041
0.947266
0.964676
0.976517
0.983589
0.742256
0.690319
0.688399
0.72016
0.744121
0.777712
0.801535
0.829451
0.858244
0.883636
0.903971
0.925137
0.936778
0.95126
0.958371
0.966682
0.970735
0.97464
0.976443
0.977312
0.977573
0.977577
0.976938
0.975793
0.973705
0.970164
0.964107
0.953745
0.936148
0.907003
0.874147
0.837752
0.797937
0.763761
0.741147
0.725444
0.718128
0.716722
0.729723
0.764888
0.824826
0.854364
0.857263
0.847993
0.819184
0.742682
0.680418
0.669689
0.676865
0.689398
0.693922
0.697452
0.705047
0.72742
0.762131
0.74825
0.722838
0.715255
0.712754
0.714812
0.73025
0.764435
0.805017
0.839366
0.868619
0.892457
0.915641
0.936453
0.952788
0.959995
0.96275
0.964967
0.967237
0.969558
0.971994
0.973481
0.974167
0.974303
0.973441
0.97215
0.969208
0.963766
0.953984
0.936987
0.909354
0.868644
0.822971
0.772671
0.721378
0.668894
0.623561
0.59878
0.586681
0.580487
0.577874
0.577384
0.582629
0.589137
0.598942
0.61147
0.626693
0.642686
0.657864
0.671001
0.681093
0.688164
0.692291
0.693703
0.693821
0.693979
0.694733
0.696475
0.700087
0.707228
0.721515
0.751473
0.805604
0.868944
0.9188
0.953741
0.976128
0.988878
0.994945
0.99701
0.996993
0.992431
0.968085
0.880885
0.798849
0.760081
0.74798
0.747602
0.749806
0.756708
0.77341
0.791678
0.812004
0.832565
0.848949
0.859482
0.864935
0.866518
0.866165
0.866009
0.867623
0.876667
0.884714
0.89086
0.903861
0.924983
0.946979
0.96472
0.976214
0.98215
0.984451
0.985039
0.985252
0.98582
0.988387
0.992434
0.99458
0.995333
0.995459
0.995437
0.995283
0.995026
0.994504
0.993317
0.990227
0.980411
0.962385
0.94786
0.939051
0.935502
0.935082
0.936438
0.944672
0.962587
0.976048
0.984418
0.751411
0.735374
0.76768
0.813892
0.837542
0.872504
0.892119
0.918123
0.934084
0.951524
0.960367
0.970021
0.97449
0.978909
0.980826
0.982369
0.983057
0.983407
0.983518
0.983528
0.983355
0.983295
0.983394
0.98358
0.983833
0.984106
0.984375
0.984605
0.984163
0.98218
0.977523
0.968089
0.950634
0.921369
0.879322
0.827865
0.779467
0.755902
0.746029
0.767422
0.815193
0.857981
0.873153
0.872185
0.867976
0.863939
0.841993
0.779094
0.716145
0.702052
0.70011
0.701731
0.708188
0.72757
0.759333
0.751054
0.727884
0.720985
0.721129
0.735724
0.788549
0.836929
0.873873
0.898951
0.917557
0.931451
0.944264
0.959334
0.970825
0.974257
0.974936
0.9745
0.974757
0.975146
0.975336
0.975011
0.974311
0.973021
0.969989
0.964309
0.95383
0.936232
0.905127
0.86521
0.817992
0.769219
0.71277
0.655676
0.604302
0.566705
0.546961
0.531986
0.519228
0.506917
0.492494
0.481885
0.477595
0.481951
0.494474
0.514108
0.541528
0.574769
0.610441
0.641214
0.666267
0.683244
0.693306
0.699353
0.701697
0.69999
0.696975
0.696084
0.696285
0.697798
0.700929
0.706572
0.719215
0.751202
0.817072
0.884913
0.932882
0.964367
0.982949
0.992804
0.997226
0.99813
0.99675
0.988001
0.959653
0.877178
0.806235
0.7719
0.761212
0.761472
0.765088
0.77499
0.796958
0.821335
0.844735
0.865213
0.881826
0.893417
0.900509
0.904469
0.906143
0.907122
0.909922
0.918883
0.927798
0.938214
0.951904
0.965955
0.976894
0.983503
0.986578
0.987597
0.987877
0.98826
0.989542
0.992931
0.995509
0.996883
0.997495
0.997722
0.997775
0.997748
0.99754
0.996822
0.994729
0.988082
0.970739
0.954634
0.944324
0.9396
0.938601
0.939255
0.944168
0.959767
0.974497
0.98399
0.769867
0.772836
0.830172
0.873144
0.896674
0.925533
0.939828
0.957322
0.965664
0.973817
0.977346
0.979719
0.980618
0.981033
0.981111
0.980966
0.979775
0.978483
0.977035
0.976028
0.975435
0.975268
0.976082
0.977242
0.97888
0.981113
0.982724
0.985158
0.986986
0.989026
0.990762
0.991522
0.991672
0.988619
0.981129
0.964526
0.930143
0.864416
0.806098
0.780573
0.791439
0.822154
0.857744
0.861741
0.845593
0.846047
0.84977
0.842543
0.811613
0.751378
0.720695
0.717135
0.722629
0.736594
0.75995
0.75132
0.730058
0.726311
0.734833
0.785877
0.860762
0.904679
0.931512
0.946432
0.954531
0.959613
0.964255
0.972152
0.979049
0.980385
0.979046
0.976535
0.975703
0.975331
0.974831
0.97346
0.970757
0.9656
0.956195
0.939518
0.910945
0.869439
0.826793
0.776012
0.722835
0.66856
0.612214
0.564361
0.523911
0.495756
0.467294
0.434289
0.398799
0.377154
0.372256
0.373988
0.382848
0.39379
0.40669
0.42183
0.441201
0.467115
0.50275
0.552634
0.608733
0.655264
0.683528
0.698753
0.706882
0.712258
0.713615
0.710951
0.707395
0.704066
0.703098
0.704273
0.708537
0.717251
0.736745
0.789199
0.85974
0.918052
0.956018
0.978436
0.990616
0.996584
0.998359
0.998071
0.994813
0.982473
0.948499
0.882742
0.827767
0.800236
0.79503
0.797755
0.808155
0.835
0.873813
0.906864
0.926127
0.933219
0.933937
0.931957
0.930261
0.930286
0.931409
0.937356
0.950026
0.958998
0.96649
0.974125
0.98109
0.986092
0.988824
0.989888
0.990185
0.990445
0.991173
0.993534
0.996034
0.997566
0.998362
0.998707
0.998811
0.998814
0.998734
0.998399
0.997382
0.994323
0.984017
0.967256
0.954885
0.948047
0.945675
0.945604
0.947695
0.957652
0.972278
0.982724
0.78575
0.806314
0.873818
0.910123
0.931876
0.952753
0.962603
0.972245
0.976414
0.978838
0.979555
0.97974
0.979333
0.977462
0.974009
0.968531
0.962833
0.958385
0.955303
0.953754
0.953158
0.953333
0.955
0.957426
0.959894
0.964002
0.967315
0.971532
0.975113
0.980011
0.985452
0.991362
0.994134
0.995817
0.996433
0.995014
0.989688
0.974489
0.932188
0.854511
0.804286
0.80264
0.821931
0.844241
0.832523
0.815768
0.82198
0.833096
0.82825
0.806009
0.775311
0.762278
0.756575
0.756732
0.761534
0.748626
0.732637
0.736573
0.774081
0.863078
0.921475
0.951016
0.966319
0.973977
0.978125
0.978859
0.978754
0.980449
0.984003
0.98387
0.980616
0.976644
0.975074
0.973366
0.970547
0.966237
0.957831
0.942265
0.912638
0.872881
0.825421
0.787398
0.745665
0.697454
0.647752
0.590346
0.540354
0.489269
0.44054
0.391728
0.351428
0.334216
0.329804
0.335322
0.347828
0.364014
0.37962
0.3938
0.405395
0.416019
0.428125
0.444525
0.466131
0.492805
0.529196
0.584132
0.645365
0.682812
0.702568
0.713093
0.71944
0.722599
0.724267
0.724252
0.720531
0.718078
0.717207
0.718544
0.726766
0.751299
0.799087
0.856004
0.912496
0.952955
0.976841
0.989752
0.996107
0.998415
0.998548
0.997367
0.992067
0.977726
0.944439
0.909888
0.894832
0.893499
0.896787
0.912141
0.941226
0.961167
0.972537
0.977431
0.97823
0.97636
0.966339
0.958456
0.95674
0.957527
0.963932
0.972865
0.978051
0.982107
0.985973
0.989142
0.991107
0.991965
0.99222
0.992396
0.992844
0.994404
0.996524
0.997958
0.998773
0.999153
0.999275
0.999284
0.999238
0.999051
0.99856
0.997343
0.993857
0.983183
0.970378
0.961789
0.95759
0.956514
0.956836
0.960434
0.971668
0.981845
0.798628
0.83193
0.902011
0.933605
0.951638
0.966005
0.972524
0.976833
0.97837
0.978833
0.978714
0.976606
0.97116
0.962916
0.953872
0.946994
0.943166
0.939973
0.938419
0.937672
0.937461
0.938216
0.939478
0.942124
0.946006
0.950774
0.956212
0.961261
0.965306
0.968589
0.971673
0.976674
0.985978
0.993745
0.99696
0.998066
0.998436
0.997098
0.990915
0.969112
0.892861
0.821179
0.81164
0.828421
0.82847
0.803385
0.800428
0.812794
0.820652
0.810067
0.790081
0.775569
0.764926
0.762302
0.759223
0.743217
0.740421
0.765862
0.833763
0.912184
0.952651
0.970695
0.97902
0.983033
0.987174
0.989271
0.988589
0.987324
0.987266
0.986119
0.98162
0.97652
0.972779
0.966999
0.955202
0.93194
0.910903
0.881294
0.848937
0.811727
0.77806
0.740267
0.693437
0.642919
0.587908
0.52452
0.462688
0.400905
0.348189
0.321644
0.311131
0.310779
0.330062
0.36338
0.408844
0.453286
0.489423
0.510355
0.512905
0.502035
0.484796
0.472859
0.474248
0.489417
0.514197
0.546548
0.592967
0.650546
0.687919
0.708754
0.719426
0.724527
0.727964
0.732451
0.738394
0.742322
0.744193
0.744182
0.744355
0.752588
0.787198
0.830609
0.873774
0.919011
0.955548
0.978072
0.990346
0.996248
0.998525
0.998931
0.998496
0.996298
0.989022
0.97367
0.965426
0.96454
0.965769
0.970658
0.979826
0.98644
0.990311
0.992075
0.992439
0.991971
0.988265
0.981843
0.979026
0.978471
0.978884
0.981528
0.984383
0.986602
0.989021
0.991297
0.992873
0.993639
0.993894
0.994047
0.994391
0.995512
0.997141
0.998323
0.999043
0.999404
0.999529
0.999539
0.999488
0.999298
0.999036
0.998541
0.997376
0.993898
0.984892
0.976597
0.971478
0.969303
0.968956
0.969522
0.973634
0.982314
0.810132
0.853523
0.920116
0.948318
0.962872
0.971865
0.975786
0.977688
0.978224
0.977988
0.975451
0.967686
0.957669
0.948204
0.940616
0.936538
0.933753
0.932419
0.931838
0.931668
0.932075
0.932341
0.932942
0.933696
0.935011
0.937743
0.943359
0.952113
0.960792
0.964978
0.96772
0.969805
0.973353
0.981994
0.992345
0.99702
0.998785
0.999304
0.999142
0.996469
0.982576
0.910819
0.8256
0.819057
0.824892
0.800949
0.789993
0.793311
0.801458
0.800328
0.786301
0.773677
0.764633
0.762045
0.752552
0.744338
0.758787
0.792831
0.855413
0.922183
0.95612
0.9718
0.979108
0.982783
0.987931
0.991691
0.993325
0.992716
0.991346
0.98854
0.983285
0.975952
0.961044
0.951356
0.932612
0.903855
0.862166
0.823869
0.796333
0.773411
0.758665
0.716317
0.655856
0.591606
0.523676
0.456128
0.389444
0.336468
0.30872
0.301156
0.310842
0.347039
0.426283
0.536221
0.648273
0.728252
0.774871
0.794644
0.793281
0.764226
0.70181
0.619809
0.560154
0.532375
0.528729
0.544989
0.578015
0.624184
0.670985
0.701046
0.71736
0.724499
0.728532
0.734257
0.74503
0.760086
0.775409
0.78604
0.790283
0.792501
0.801511
0.831809
0.865592
0.898782
0.933173
0.9625
0.98144
0.991912
0.99689
0.998774
0.999262
0.999115
0.998105
0.994334
0.990751
0.990063
0.990336
0.991483
0.993941
0.995752
0.996789
0.997236
0.9973
0.997034
0.995131
0.991481
0.989778
0.989381
0.989432
0.990005
0.990792
0.991186
0.991758
0.993051
0.994282
0.994978
0.995247
0.995403
0.995719
0.996621
0.997794
0.998688
0.999264
0.999571
0.999688
0.999704
0.999669
0.999493
0.9993
0.999091
0.998664
0.997551
0.993869
0.987913
0.983701
0.981537
0.980868
0.980889
0.981654
0.985156
0.819615
0.866422
0.931484
0.956176
0.968123
0.974212
0.976669
0.977573
0.977691
0.975589
0.967377
0.956626
0.94667
0.938329
0.933683
0.931356
0.930153
0.929706
0.929614
0.93059
0.931155
0.931601
0.93181
0.932017
0.93232
0.933115
0.934567
0.938471
0.94934
0.960581
0.965935
0.968099
0.970075
0.974332
0.98376
0.99252
0.997152
0.99912
0.999692
0.999757
0.998606
0.988187
0.913358
0.830268
0.816883
0.810239
0.786165
0.781814
0.782186
0.779771
0.774257
0.767126
0.762474
0.758693
0.75155
0.753708
0.769276
0.798073
0.853997
0.912902
0.940867
0.953875
0.961562
0.968633
0.980631
0.989405
0.993305
0.994795
0.994585
0.992903
0.987359
0.977954
0.960228
0.915712
0.858604
0.846111
0.832013
0.804634
0.779755
0.753042
0.714237
0.665415
0.595453
0.52059
0.448428
0.389434
0.341828
0.313197
0.30432
0.31017
0.356462
0.493106
0.673265
0.795576
0.848232
0.871041
0.884449
0.895346
0.902826
0.90258
0.890616
0.850469
0.743335
0.647039
0.596644
0.578399
0.58292
0.616153
0.663087
0.696395
0.714276
0.723112
0.728141
0.735139
0.75158
0.77886
0.809612
0.837509
0.857779
0.868548
0.86893
0.870138
0.880105
0.898932
0.922845
0.949019
0.971267
0.985835
0.993875
0.997691
0.999094
0.99952
0.999477
0.999004
0.997917
0.997538
0.997566
0.997768
0.998305
0.998738
0.998971
0.999055
0.999046
0.998853
0.997751
0.995755
0.994799
0.99455
0.994524
0.994523
0.994465
0.994335
0.994341
0.994521
0.995305
0.99602
0.996312
0.996483
0.996823
0.997585
0.998387
0.999024
0.999453
0.999694
0.999795
0.999814
0.999797
0.999686
0.999539
0.999439
0.999275
0.998882
0.99762
0.994458
0.99188
0.990503
0.99005
0.990039
0.990406
0.99185
0.829256
0.876982
0.936839
0.960611
0.970848
0.975172
0.976664
0.977149
0.975946
0.970728
0.962211
0.953777
0.945378
0.937927
0.932815
0.9302
0.92882
0.928359
0.929198
0.931539
0.932598
0.93257
0.932421
0.932013
0.93214
0.932592
0.933332
0.935118
0.940699
0.953629
0.963108
0.967248
0.969133
0.972129
0.980076
0.989605
0.995469
0.99827
0.999449
0.999851
0.999936
0.999611
0.992025
0.917326
0.820426
0.812777
0.799228
0.7806
0.776523
0.771581
0.767708
0.763567
0.760405
0.757535
0.752837
0.758062
0.770197
0.794983
0.830458
0.857038
0.864197
0.865869
0.868374
0.875389
0.903898
0.954512
0.981273
0.991807
0.994648
0.994707
0.993063
0.985526
0.966843
0.921831
0.836698
0.767572
0.753819
0.761011
0.757441
0.74329
0.705012
0.606994
0.521604
0.453339
0.39677
0.355776
0.328434
0.313299
0.313438
0.346902
0.50722
0.727941
0.836472
0.87188
0.881041
0.886251
0.891957
0.901464
0.913692
0.922689
0.924271
0.918645
0.887964
0.777732
0.682099
0.636309
0.620896
0.62383
0.659369
0.695028
0.71232
0.720343
0.72658
0.737723
0.766743
0.816372
0.865676
0.904171
0.933649
0.949025
0.952014
0.949268
0.937388
0.928065
0.92823
0.941773
0.963074
0.979606
0.990113
0.995774
0.99843
0.999392
0.999709
0.999711
0.999595
0.999439
0.999422
0.999448
0.999538
0.999632
0.999677
0.999687
0.99967
0.999549
0.998969
0.997876
0.99732
0.997164
0.997121
0.997034
0.996672
0.996075
0.995882
0.995916
0.996294
0.996895
0.997156
0.997348
0.997749
0.998313
0.998866
0.999308
0.999612
0.999789
0.999868
0.999888
0.999882
0.999828
0.999739
0.99969
0.999626
0.999481
0.999025
0.997659
0.996376
0.995715
0.995517
0.995522
0.995721
0.996409
0.835864
0.875628
0.934876
0.959944
0.970653
0.975056
0.976577
0.976733
0.975719
0.971074
0.962721
0.954924
0.947078
0.939855
0.934322
0.931165
0.92936
0.928514
0.92858
0.92901
0.930077
0.931411
0.932158
0.932563
0.932873
0.93312
0.93361
0.934958
0.939145
0.951365
0.961997
0.966872
0.968909
0.971581
0.978716
0.988585
0.994941
0.998036
0.999311
0.999781
0.999939
0.999982
0.99992
0.996614
0.91609
0.80365
0.828125
0.804818
0.779072
0.77209
0.767692
0.76375
0.760537
0.757884
0.757376
0.76039
0.768158
0.781276
0.793538
0.801812
0.802225
0.80055
0.798446
0.798018
0.802129
0.821682
0.875537
0.948656
0.98175
0.992268
0.993576
0.992063
0.982917
0.949179
0.857452
0.771399
0.712872
0.6856
0.697204
0.70943
0.689707
0.61218
0.511111
0.440526
0.390719
0.354643
0.330607
0.324196
0.338373
0.447792
0.69512
0.829394
0.871691
0.88078
0.880198
0.875837
0.873439
0.879445
0.903905
0.923528
0.932459
0.932916
0.923452
0.863694
0.735303
0.669853
0.651318
0.650187
0.664522
0.696062
0.7121
0.718979
0.725985
0.740945
0.785424
0.862348
0.915837
0.947487
0.964701
0.974086
0.978776
0.979658
0.978999
0.97476
0.961276
0.955645
0.958397
0.973195
0.986402
0.993703
0.997374
0.999043
0.999634
0.999838
0.999874
0.999868
0.999858
0.999861
0.999874
0.999891
0.999898
0.999898
0.999886
0.999822
0.999535
0.99894
0.998637
0.998554
0.998511
0.998398
0.997924
0.997191
0.996906
0.9969
0.997121
0.997581
0.997821
0.99806
0.998413
0.998829
0.999217
0.999523
0.999733
0.999858
0.999917
0.999934
0.999934
0.999913
0.99987
0.999847
0.999823
0.999769
0.999599
0.999054
0.998513
0.99825
0.998183
0.998193
0.998308
0.998628
0.842669
0.870579
0.928741
0.95702
0.969423
0.97452
0.976363
0.976578
0.975886
0.972536
0.964669
0.957792
0.9514
0.94487
0.938527
0.9344
0.931813
0.930154
0.929605
0.929673
0.929956
0.930806
0.931957
0.932874
0.933597
0.934353
0.935499
0.93772
0.942661
0.954372
0.963842
0.967882
0.969664
0.972212
0.97915
0.989086
0.995376
0.998288
0.999408
0.999801
0.999936
0.999982
0.999995
0.99998
0.998754
0.957846
0.798912
0.786687
0.79353
0.786517
0.772278
0.766302
0.762075
0.759561
0.75978
0.761539
0.765991
0.772056
0.777613
0.781126
0.781469
0.780814
0.77974
0.779223
0.77956
0.782053
0.790272
0.814771
0.890196
0.959528
0.985557
0.990883
0.989532
0.978511
0.927505
0.807354
0.723954
0.674819
0.644364
0.644143
0.642222
0.609542
0.520976
0.448033
0.396996
0.360065
0.343017
0.346032
0.388991
0.57931
0.766912
0.85017
0.872819
0.873616
0.866038
0.859165
0.859537
0.869251
0.89801
0.922859
0.936527
0.939523
0.935657
0.896246
0.775383
0.693129
0.666104
0.665628
0.68123
0.703654
0.713629
0.718584
0.726285
0.746019
0.810456
0.8849