/*--------------------------------*- C++ -*----------------------------------*\
  =========                 |
  \\      /  F ield         | OpenFOAM: The Open Source CFD Toolbox
   \\    /   O peration     | Website:  https://openfoam.org
    \\  /    A nd           | Version:  6
     \\/     M anipulation  |
\*---------------------------------------------------------------------------*/
FoamFile
{
    version     2.0;
    format      ascii;
    class       volVectorField;
    location    "0.05";
    object      UMean;
}
// * * * * * * * * * * * * * * * * * * * * * * * * * * * * * * * * * * * * * //

dimensions      [0 1 -1 0 0 0 0];

internalField   nonuniform List<vector> 
12225
(
(9.84217 0.0146182 0)
(9.54868 0.0286421 0)
(9.2621 0.0316338 0)
(8.97074 0.0329252 0)
(8.6817 0.0339283 0)
(8.40142 0.0349917 0)
(8.1342 0.0351213 0)
(7.87777 0.0358564 0)
(7.63404 0.0350418 0)
(7.39673 0.0365871 0)
(7.1718 0.0345898 0)
(6.94673 0.038883 0)
(6.73505 0.0343732 0)
(6.51152 0.0457543 0)
(6.3031 0.0355027 0)
(6.06307 0.0634315 0)
(5.83978 0.0382609 0)
(5.53802 0.0736259 0)
(9.99985 0.0459255 0)
(10.066 0.0740659 0)
(10.1155 0.0783308 0)
(10.1371 0.0794768 0)
(10.1382 0.0817999 0)
(10.1275 0.0839662 0)
(10.1093 0.0859536 0)
(10.0853 0.0868918 0)
(10.0552 0.0884777 0)
(10.0201 0.0889297 0)
(9.97903 0.0914049 0)
(9.9341 0.092135 0)
(9.88261 0.0971442 0)
(9.82794 0.0995977 0)
(9.76424 0.109591 0)
(9.69667 0.115812 0)
(9.61677 0.126404 0)
(9.51267 0.11901 0)
(10.0029 0.0286042 0)
(10.0364 0.0566733 0)
(10.0735 0.0594831 0)
(10.0975 0.0594232 0)
(10.1112 0.0616514 0)
(10.1209 0.0648567 0)
(10.1306 0.0676614 0)
(10.1404 0.0701726 0)
(10.1503 0.0724289 0)
(10.1586 0.0751358 0)
(10.1666 0.078055 0)
(10.1719 0.0821336 0)
(10.1787 0.0872255 0)
(10.1822 0.0943629 0)
(10.192 0.104144 0)
(10.1976 0.113777 0)
(10.2161 0.123253 0)
(10.2171 0.105321 0)
(10.005 0.0290386 0)
(10.0297 0.0552728 0)
(10.0607 0.0592351 0)
(10.0814 0.0592765 0)
(10.0922 0.0613845 0)
(10.0989 0.0645198 0)
(10.1058 0.0673868 0)
(10.1135 0.0697782 0)
(10.1217 0.0721113 0)
(10.1296 0.0747279 0)
(10.1375 0.0778437 0)
(10.1451 0.0818853 0)
(10.1538 0.0869341 0)
(10.1638 0.093865 0)
(10.1776 0.101738 0)
(10.1959 0.110082 0)
(10.2198 0.112463 0)
(10.2456 0.102717 0)
(9.98185 0.0247921 0)
(10.0019 0.0496872 0)
(10.0309 0.0562866 0)
(10.0528 0.0577056 0)
(10.0654 0.0602574 0)
(10.0734 0.063814 0)
(10.0808 0.0671486 0)
(10.0889 0.0698272 0)
(10.0974 0.0722636 0)
(10.1057 0.0746997 0)
(10.1137 0.0776536 0)
(10.1217 0.0810939 0)
(10.1302 0.0856953 0)
(10.1404 0.0909455 0)
(10.153 0.0970626 0)
(10.1693 0.101229 0)
(10.1884 0.101257 0)
(10.21 0.0931824 0)
(9.97061 0.0111692 0)
(9.98543 0.0353767 0)
(10.0106 0.0453034 0)
(10.0311 0.0488367 0)
(10.0433 0.0519278 0)
(10.051 0.0556109 0)
(10.0578 0.0590888 0)
(10.0654 0.0619816 0)
(10.0735 0.0645672 0)
(10.0818 0.0672488 0)
(10.0898 0.0703288 0)
(10.098 0.0739382 0)
(10.1069 0.0781585 0)
(10.1172 0.0826808 0)
(10.1293 0.0868819 0)
(10.1441 0.0890375 0)
(10.1602 0.0875971 0)
(10.1772 0.080548 0)
(9.97804 0.0162562 0)
(9.98933 0.0369647 0)
(10.0111 0.0474774 0)
(10.0298 0.0514176 0)
(10.0415 0.0540507 0)
(10.0487 0.0572157 0)
(10.055 0.0604994 0)
(10.0619 0.063364 0)
(10.0694 0.0658653 0)
(10.0772 0.0682827 0)
(10.085 0.0709131 0)
(10.093 0.0738391 0)
(10.1016 0.0770619 0)
(10.1113 0.080196 0)
(10.1225 0.0826131 0)
(10.135 0.0831808 0)
(10.1486 0.0808533 0)
(10.1619 0.0747383 0)
(9.98271 0.0134669 0)
(9.99365 0.031237 0)
(10.0142 0.0419415 0)
(10.0324 0.0466077 0)
(10.0445 0.0493072 0)
(10.0524 0.0521055 0)
(10.0591 0.0549793 0)
(10.0664 0.0575233 0)
(10.0742 0.0597648 0)
(10.0823 0.0619647 0)
(10.0904 0.0643563 0)
(10.0987 0.0669529 0)
(10.1076 0.0696122 0)
(10.1174 0.0719304 0)
(10.1284 0.073353 0)
(10.1403 0.0731363 0)
(10.1528 0.0706099 0)
(10.1647 0.0653241 0)
(9.99153 0.0094318 0)
(10.0002 0.0265108 0)
(10.0183 0.0375129 0)
(10.0351 0.0429555 0)
(10.047 0.0460679 0)
(10.0549 0.0489922 0)
(10.0615 0.0520848 0)
(10.0684 0.0550199 0)
(10.0758 0.0576379 0)
(10.0836 0.060021 0)
(10.0916 0.0623086 0)
(10.0998 0.0645281 0)
(10.1084 0.066548 0)
(10.1177 0.0680838 0)
(10.1278 0.0686967 0)
(10.1385 0.0679441 0)
(10.1494 0.065321 0)
(10.1597 0.0607633 0)
(10.0105 0.00421727 0)
(10.0189 0.0208685 0)
(10.0353 0.0314527 0)
(10.0508 0.0374667 0)
(10.0621 0.0412161 0)
(10.07 0.0443045 0)
(10.0765 0.0471852 0)
(10.0832 0.0497625 0)
(10.0905 0.0519806 0)
(10.0981 0.0539379 0)
(10.1059 0.0557584 0)
(10.1137 0.0574542 0)
(10.1218 0.0588767 0)
(10.1303 0.0597722 0)
(10.1391 0.0597768 0)
(10.1482 0.0586206 0)
(10.1572 0.0559639 0)
(10.1655 0.0519407 0)
(9.98949 0.00386527 0)
(9.99603 0.0195435 0)
(10.0106 0.0297673 0)
(10.0249 0.0361339 0)
(10.036 0.0403 0)
(10.0444 0.0435607 0)
(10.0516 0.0464608 0)
(10.0588 0.0490445 0)
(10.0664 0.0512705 0)
(10.0743 0.0531756 0)
(10.0823 0.0548105 0)
(10.0905 0.0561615 0)
(10.099 0.0570884 0)
(10.1078 0.0574142 0)
(10.1167 0.0568721 0)
(10.1258 0.0553489 0)
(10.1344 0.0526276 0)
(10.1429 0.048949 0)
(10.0015 -0.00117504 0)
(10.0051 0.0118175 0)
(10.0174 0.0215174 0)
(10.0295 0.0282254 0)
(10.0389 0.0326596 0)
(10.0461 0.0359259 0)
(10.0527 0.038758 0)
(10.0597 0.0413232 0)
(10.0672 0.0435185 0)
(10.0749 0.0452926 0)
(10.0828 0.0466573 0)
(10.0907 0.047678 0)
(10.0986 0.0482768 0)
(10.1067 0.0484068 0)
(10.1146 0.0478019 0)
(10.1227 0.0464732 0)
(10.1301 0.044108 0)
(10.1375 0.04108 0)
(9.97011 0.00855059 0)
(9.97317 0.0166654 0)
(9.98525 0.023861 0)
(9.99762 0.0291799 0)
(10.0075 0.0327744 0)
(10.0154 0.0353291 0)
(10.0225 0.0374308 0)
(10.0299 0.0393226 0)
(10.0377 0.0410064 0)
(10.0457 0.0424456 0)
(10.0537 0.0435803 0)
(10.0617 0.0443784 0)
(10.0696 0.0447072 0)
(10.0776 0.0445053 0)
(10.0854 0.0435851 0)
(10.0935 0.0419989 0)
(10.101 0.0395745 0)
(10.1086 0.0366078 0)
(9.98262 0.00883764 0)
(9.98778 0.0150734 0)
(10.0001 0.0211219 0)
(10.0118 0.025907 0)
(10.0208 0.0293693 0)
(10.028 0.0319415 0)
(10.0345 0.0340434 0)
(10.041 0.0358669 0)
(10.0479 0.0373901 0)
(10.0548 0.038581 0)
(10.0618 0.0393741 0)
(10.0688 0.0397834 0)
(10.0758 0.0396945 0)
(10.0828 0.0391374 0)
(10.0898 0.0379132 0)
(10.0967 0.0362053 0)
(10.1034 0.0337293 0)
(10.1095 0.0310105 0)
(9.9868 -0.00676851 0)
(9.99214 0.00149717 0)
(10.0036 0.00825895 0)
(10.014 0.013734 0)
(10.0219 0.0179 0)
(10.0284 0.0209739 0)
(10.0346 0.0233708 0)
(10.041 0.0253913 0)
(10.0477 0.027108 0)
(10.0545 0.0284789 0)
(10.0613 0.0294111 0)
(10.068 0.0298552 0)
(10.0746 0.0297445 0)
(10.0811 0.029114 0)
(10.0874 0.027919 0)
(10.0935 0.0263055 0)
(10.0993 0.0241866 0)
(10.1046 0.0218566 0)
(10.0061 -0.00335732 0)
(10.0095 0.00486172 0)
(10.02 0.0103837 0)
(10.0299 0.01446 0)
(10.0371 0.0177055 0)
(10.0427 0.0203365 0)
(10.0482 0.0224798 0)
(10.054 0.0241876 0)
(10.0603 0.0254449 0)
(10.0669 0.0262622 0)
(10.0735 0.0266344 0)
(10.08 0.0265968 0)
(10.0864 0.0261113 0)
(10.0925 0.0252351 0)
(10.0982 0.0238923 0)
(10.1037 0.0222421 0)
(10.1087 0.020156 0)
(10.1133 0.0179749 0)
(9.97302 -0.00361205 0)
(9.97626 0.00159506 0)
(9.9865 0.00553336 0)
(9.9957 0.00840399 0)
(10.0021 0.010614 0)
(10.0071 0.0123178 0)
(10.0124 0.0135553 0)
(10.0183 0.0143923 0)
(10.0247 0.0148979 0)
(10.0312 0.0151497 0)
(10.0377 0.0151546 0)
(10.044 0.0149381 0)
(10.0502 0.0144382 0)
(10.0563 0.0137051 0)
(10.0621 0.0126495 0)
(10.0678 0.0114248 0)
(10.0731 0.00987239 0)
(10.0782 0.00831919 0)
(9.98589 -0.004502 0)
(9.9887 -0.00281287 0)
(9.9983 -0.000763251 0)
(10.007 0.00101787 0)
(10.0133 0.002271 0)
(10.0183 0.00313771 0)
(10.0235 0.00381875 0)
(10.0291 0.00440898 0)
(10.035 0.00486213 0)
(10.0409 0.00509259 0)
(10.0468 0.00500041 0)
(10.0525 0.0045715 0)
(10.058 0.00378446 0)
(10.0633 0.00273607 0)
(10.0685 0.00142032 0)
(10.0734 5.82071e-06 0)
(10.078 -0.00159381 0)
(10.0824 -0.00312198 0)
(9.98511 -0.00215257 0)
(9.98777 -0.00143476 0)
(9.99642 -0.000892516 0)
(10.0044 -0.000523788 0)
(10.0103 -0.000273903 0)
(10.0151 -6.2026e-05 0)
(10.02 8.69795e-05 0)
(10.0252 7.65515e-05 0)
(10.0307 -0.000175299 0)
(10.0363 -0.000659145 0)
(10.0417 -0.00133004 0)
(10.047 -0.00210259 0)
(10.052 -0.0029663 0)
(10.0568 -0.00387286 0)
(10.0613 -0.00488806 0)
(10.0656 -0.00594541 0)
(10.0696 -0.00715899 0)
(10.0735 -0.00837609 0)
(9.97814 -0.0139427 0)
(9.98073 -0.0142752 0)
(9.98906 -0.0149161 0)
(9.99644 -0.0156555 0)
(10.0017 -0.0162039 0)
(10.006 -0.0164627 0)
(10.0105 -0.0165275 0)
(10.0155 -0.0165245 0)
(10.0209 -0.0165636 0)
(10.0264 -0.0167021 0)
(10.0317 -0.0169938 0)
(10.0369 -0.0174421 0)
(10.0419 -0.0180856 0)
(10.0467 -0.018875 0)
(10.0514 -0.0198457 0)
(10.0558 -0.0208823 0)
(10.06 -0.0220721 0)
(10.0639 -0.0232192 0)
(10.0064 -0.00745685 0)
(10.0067 -0.00958625 0)
(10.0143 -0.0118152 0)
(10.0221 -0.013762 0)
(10.0278 -0.0152802 0)
(10.0321 -0.0164888 0)
(10.0361 -0.0175462 0)
(10.0403 -0.0185227 0)
(10.0449 -0.019439 0)
(10.0497 -0.0203092 0)
(10.0546 -0.0211679 0)
(10.0594 -0.0220317 0)
(10.0641 -0.0229167 0)
(10.0684 -0.0237991 0)
(10.0727 -0.024687 0)
(10.0766 -0.0255544 0)
(10.0804 -0.026451 0)
(10.0838 -0.0273415 0)
(10.0122 -0.00626224 0)
(10.0131 -0.0122386 0)
(10.0214 -0.0168709 0)
(10.0298 -0.0199069 0)
(10.036 -0.0216267 0)
(10.0406 -0.0227305 0)
(10.0449 -0.0237748 0)
(10.0493 -0.0249302 0)
(10.0541 -0.0261122 0)
(10.0591 -0.0271978 0)
(10.0639 -0.028159 0)
(10.0686 -0.0290213 0)
(10.073 -0.0298538 0)
(10.0773 -0.0306768 0)
(10.0813 -0.031545 0)
(10.0853 -0.0324167 0)
(10.089 -0.0333648 0)
(10.0926 -0.034282 0)
(9.98614 -0.00556463 0)
(9.98836 -0.0143688 0)
(9.99786 -0.0206382 0)
(10.0073 -0.0243695 0)
(10.0143 -0.026416 0)
(10.0194 -0.0278315 0)
(10.0239 -0.0291581 0)
(10.0285 -0.0304414 0)
(10.0332 -0.0315854 0)
(10.0379 -0.0325668 0)
(10.0424 -0.033454 0)
(10.0467 -0.0343136 0)
(10.0507 -0.0351878 0)
(10.0547 -0.0360626 0)
(10.0585 -0.0369377 0)
(10.0622 -0.0377744 0)
(10.0657 -0.0386034 0)
(10.0692 -0.0393836 0)
(9.98983 -0.00616792 0)
(9.99299 -0.0178026 0)
(10.0043 -0.0249668 0)
(10.0154 -0.0284568 0)
(10.023 -0.0303405 0)
(10.0278 -0.0319358 0)
(10.0318 -0.0334883 0)
(10.0361 -0.0348174 0)
(10.0409 -0.0358349 0)
(10.0458 -0.0366331 0)
(10.0505 -0.0373809 0)
(10.0548 -0.0381796 0)
(10.0587 -0.0390564 0)
(10.0624 -0.0399549 0)
(10.0658 -0.0408396 0)
(10.0691 -0.0416521 0)
(10.0722 -0.0424267 0)
(10.0752 -0.0431326 0)
(9.9866 -0.00676256 0)
(9.99233 -0.0208357 0)
(10.0068 -0.0288131 0)
(10.0203 -0.0321017 0)
(10.0293 -0.0336698 0)
(10.0351 -0.0352332 0)
(10.0398 -0.0370024 0)
(10.0448 -0.0386335 0)
(10.05 -0.0399095 0)
(10.0553 -0.0408595 0)
(10.0603 -0.0416347 0)
(10.065 -0.0423639 0)
(10.0693 -0.0431208 0)
(10.0733 -0.0439059 0)
(10.0771 -0.0447159 0)
(10.0807 -0.0455147 0)
(10.0841 -0.0463204 0)
(10.0872 -0.0470931 0)
(9.98385 -0.00936544 0)
(9.99334 -0.0254703 0)
(10.011 -0.0321085 0)
(10.0258 -0.0340219 0)
(10.0348 -0.0354708 0)
(10.0402 -0.0375086 0)
(10.0447 -0.0395947 0)
(10.0496 -0.0412256 0)
(10.0549 -0.0423621 0)
(10.06 -0.0432016 0)
(10.0648 -0.0439317 0)
(10.0692 -0.0446451 0)
(10.0733 -0.0453637 0)
(10.0772 -0.0460728 0)
(10.0808 -0.0467584 0)
(10.0842 -0.0474106 0)
(10.0874 -0.0480422 0)
(10.0904 -0.0486558 0)
(9.98314 -0.0199431 0)
(9.99558 -0.0391126 0)
(10.0165 -0.0437279 0)
(10.0326 -0.0434848 0)
(10.0415 -0.0436755 0)
(10.0467 -0.0448841 0)
(10.0513 -0.0462965 0)
(10.0565 -0.0474305 0)
(10.0619 -0.0482804 0)
(10.067 -0.048998 0)
(10.0717 -0.0496909 0)
(10.076 -0.0503918 0)
(10.08 -0.0511003 0)
(10.0838 -0.0518019 0)
(10.0875 -0.0525011 0)
(10.0909 -0.0531942 0)
(10.0942 -0.0539137 0)
(10.0971 -0.0546407 0)
(10.0161 -0.0120812 0)
(10.0359 -0.0357857 0)
(10.0613 -0.0400055 0)
(10.0785 -0.0396996 0)
(10.0876 -0.0402821 0)
(10.0933 -0.0417248 0)
(10.0989 -0.0430795 0)
(10.1052 -0.0439953 0)
(10.1118 -0.0445785 0)
(10.1182 -0.0450495 0)
(10.124 -0.0455222 0)
(10.1294 -0.0460598 0)
(10.1344 -0.0466288 0)
(10.1389 -0.0472454 0)
(10.1432 -0.0478274 0)
(10.1469 -0.0484324 0)
(10.1506 -0.0489714 0)
(10.1536 -0.0496113 0)
(10.0044 -0.0265869 0)
(10.0499 -0.0510902 0)
(10.091 -0.0561034 0)
(10.1159 -0.0571253 0)
(10.1281 -0.0584647 0)
(10.134 -0.060042 0)
(10.1371 -0.0612614 0)
(10.1384 -0.0619977 0)
(10.1379 -0.0624086 0)
(10.1355 -0.0626979 0)
(10.1311 -0.0629449 0)
(10.1251 -0.0631985 0)
(10.1177 -0.0634111 0)
(10.1094 -0.063619 0)
(10.0999 -0.0637557 0)
(10.09 -0.063913 0)
(10.0788 -0.0640199 0)
(10.0678 -0.0642307 0)
(9.89356 -0.0117465 0)
(9.73329 -0.023896 0)
(9.57757 -0.0271175 0)
(9.41489 -0.028422 0)
(9.24966 -0.0295024 0)
(9.08844 -0.0303669 0)
(8.93461 -0.0308984 0)
(8.78872 -0.0311548 0)
(8.64989 -0.031249 0)
(8.51738 -0.0312572 0)
(8.39052 -0.0312163 0)
(8.26923 -0.0311516 0)
(8.15299 -0.031079 0)
(8.04211 -0.0309926 0)
(7.93556 -0.0308862 0)
(7.83439 -0.0307177 0)
(7.7365 -0.0305422 0)
(7.64467 -0.0302521 0)
(-0.104058 0.00952936 3.30215e-21)
(-0.191157 -0.102093 -3.27313e-21)
(-0.238778 -0.18344 0)
(-0.231944 -0.255869 0)
(-0.0936817 -0.331863 0)
(0.135381 -0.3921 3.16846e-21)
(0.416572 -0.436158 0)
(0.729344 -0.452975 0)
(1.05403 -0.443167 0)
(1.37534 -0.41087 0)
(1.67896 -0.363136 -2.89877e-21)
(1.95027 -0.306032 0)
(2.1775 -0.244006 0)
(2.35194 -0.179987 0)
(2.46982 -0.115838 0)
(2.53078 -0.0528792 -2.42304e-21)
(2.53602 0.00810834 0)
(2.48749 0.0660791 0)
(2.38797 0.120473 0)
(2.24017 0.169004 0)
(2.0493 0.21121 0)
(1.82163 0.2412 0)
(1.5667 0.2617 0)
(1.29908 0.257916 -2.36707e-21)
(1.0125 0.242693 2.37283e-21)
(0.737297 0.175321 -2.36955e-21)
(0.467446 0.106096 -2.35576e-21)
(0.152967 0.0423963 0)
(-0.104246 -0.0811392 0)
(-0.315647 -0.0395172 2.25545e-21)
(-0.591526 0.117728 2.2135e-21)
(-0.900282 0.178262 0)
(-1.24812 0.163393 0)
(-1.57845 0.127696 2.00378e-21)
(-1.88459 0.0979635 0)
(-2.15991 0.0827313 0)
(-2.4004 0.0702437 -1.70983e-21)
(-2.5846 0.0472906 0)
(-2.74787 0.0329753 -1.5176e-21)
(-2.90354 0.045588 -2.83326e-21)
(-3.05956 0.0742793 0)
(-3.2298 0.0985103 0)
(-3.39211 0.0832943 0)
(-3.57104 0.0461019 0)
(-3.77557 0.0529654 0)
(-3.88295 0.0383635 -1.80523e-21)
(-4.07673 0.00874453 -1.6983e-21)
(-4.19913 0.00415054 -1.61233e-21)
(-4.38009 0.14242 0)
(-4.71322 0.20079 1.51999e-21)
(-4.97158 0.178589 0)
(-5.21603 0.157134 -1.35721e-21)
(-5.42905 0.126287 -1.24915e-21)
(-5.5729 0.0872942 0)
(-5.69528 0.0476607 0)
(-5.79788 0.0683592 0)
(-5.97511 0.10978 -8.24415e-22)
(-6.13475 0.0986632 0)
(-6.2398 0.0743512 0)
(-6.311 0.0472927 0)
(-6.34441 0.0241543 0)
(-6.35025 0.00425599 0)
(-6.3278 -0.0124371 0)
(-6.28291 -0.0266135 0)
(-6.21643 -0.0386065 0)
(-6.13186 -0.048835 3.90603e-22)
(-6.03064 -0.0575667 0)
(-5.91533 -0.0650719 0)
(-5.78732 -0.0715403 -6.73881e-22)
(-5.6481 -0.0771239 -8.09203e-22)
(-5.49883 -0.0819541 0)
(-5.34067 -0.0861537 1.12863e-21)
(-5.17444 -0.089826 -1.30827e-21)
(-5.00086 -0.0930565 0)
(-4.82051 -0.0959223 1.69646e-21)
(-4.63385 -0.0984932 0)
(-4.44127 -0.100833 0)
(-4.24303 -0.102998 -2.32065e-21)
(-4.03935 -0.105033 0)
(-3.8304 -0.106971 2.74447e-21)
(-3.61627 -0.108835 0)
(-3.39705 -0.11064 -3.1614e-21)
(-3.17278 -0.112394 -3.36457e-21)
(-2.94349 -0.114098 -3.56319e-21)
(-2.70915 -0.115742 -7.51346e-21)
(-2.46975 -0.117301 7.88969e-21)
(-2.22531 -0.118724 0)
(-1.97598 -0.119942 0)
(-1.72214 -0.120857 0)
(-1.46446 -0.121351 9.27335e-21)
(-1.20388 -0.12128 9.58273e-21)
(-0.941749 -0.120492 -9.87294e-21)
(-0.679711 -0.118859 0)
(-0.419675 -0.116299 1.03829e-20)
(-0.163608 -0.112805 1.05969e-20)
(0.0866409 -0.108446 1.07811e-20)
(0.329492 -0.103358 0)
(0.563715 -0.0977275 0)
(0.788435 -0.0918008 0)
(1.00307 -0.0858399 1.12275e-20)
(1.20734 -0.0800508 0)
(1.40124 -0.0745623 0)
(1.58509 -0.069445 -1.13145e-20)
(1.75939 -0.0647207 0)
(1.92476 -0.0603799 0)
(2.08186 -0.0563926 -1.12571e-20)
(2.23131 -0.0527169 0)
(2.37361 -0.0493041 0)
(2.5092 -0.0461042 1.10927e-20)
(2.63839 -0.0430674 1.10181e-20)
(2.7614 -0.0401479 0)
(2.87833 -0.0373052 -1.08432e-20)
(2.98925 -0.0345044 0)
(3.09412 -0.0317218 1.06383e-20)
(3.19291 -0.0289435 0)
(3.28554 -0.0261681 1.04095e-20)
(3.37192 -0.023408 1.02881e-20)
(3.45201 -0.0206828 0)
(3.52579 -0.0180129 0)
(3.59329 -0.0154192 0)
(3.6546 -0.0129189 0)
(3.70986 -0.0105327 0)
(3.75925 -0.00827695 0)
(3.80302 -0.00615798 0)
(3.84146 -0.00418258 9.27499e-21)
(3.87485 -0.00235541 -9.15416e-21)
(3.90353 -0.000682605 0)
(3.92784 0.000832967 0)
(3.94816 0.00219684 0)
(3.9648 0.00341971 0)
(3.97809 0.00451303 -1.71951e-20)
(3.98832 0.00548844 0)
(3.99577 0.00635803 1.67966e-20)
(4.0007 0.00713392 -1.66067e-20)
(4.0033 0.00782772 0)
(4.00376 0.00845021 0)
(4.00222 0.00901186 0)
(3.99877 0.00952419 1.58984e-20)
(3.9935 0.0100001 1.57312e-20)
(3.98643 0.0104513 0)
(3.97759 0.0108839 1.54046e-20)
(3.96696 0.0112977 1.52441e-20)
(3.95455 0.0116872 -1.50849e-20)
(3.94034 0.0120476 0)
(3.92434 0.0123811 0)
(3.90654 0.0126989 -1.46119e-20)
(3.88693 0.0130153 0)
(3.8655 0.0133287 0)
(3.84225 0.0135992 0)
(3.81725 0.013742 0)
(3.79071 0.0136606 1.38315e-20)
(3.76306 0.0133098 1.36766e-20)
(3.7348 0.0127301 0)
(3.70644 0.0120144 1.33684e-20)
(3.67837 0.0112438 0)
(3.65089 0.0104731 0)
(3.62419 0.0097565 1.29122e-20)
(3.59834 0.00914938 0)
(3.57329 0.00867195 1.26131e-20)
(3.54886 0.00828407 0)
(3.52497 0.00789932 0)
(3.50163 0.00742963 1.21718e-20)
(3.47902 0.00683265 0)
(3.45736 0.00611882 1.18826e-20)
(3.43696 0.00535205 0)
(3.4178 0.00459167 0)
(3.40008 0.00394431 0)
(3.38319 0.00343537 -1.13219e-20)
(3.36749 0.00322638 0)
(3.35111 0.00319629 1.10531e-20)
(3.33568 0.00366695 0)
(3.31616 0.00413455 0)
(3.2988 0.0055375 0)
(3.26935 0.00639437 0)
(3.24839 0.00956486 0)
(3.19431 0.0107431 0)
(3.17078 0.0184185 0)
(3.05449 0.0201701 -2.02825e-20)
(3.04103 0.0417351 0)
(2.75663 0.0486825 0)
(-0.025404 0.294596 -9.85316e-21)
(0.00465123 0.130165 9.76703e-21)
(0.0227445 0.0163835 0)
(0.200346 -0.176102 -6.35135e-21)
(0.490655 -0.449652 0)
(0.811002 -0.709299 -3.17187e-21)
(1.13563 -0.897363 6.09468e-21)
(1.44836 -0.998047 5.96567e-21)
(1.73806 -1.01668 0)
(1.99687 -0.968307 5.60684e-21)
(2.21921 -0.871623 2.90294e-21)
(2.40142 -0.744266 0)
(2.54078 -0.599977 0)
(2.63711 -0.448256 0)
(2.69143 -0.295355 0)
(2.70497 -0.145274 2.42728e-21)
(2.68029 -0.000444885 0)
(2.61911 0.137621 -4.36176e-21)
(2.52393 0.267223 0)
(2.3957 0.386463 0)
(2.23789 0.490777 4.37844e-21)
(2.05013 0.580762 0)
(1.84055 0.650579 -4.4589e-21)
(1.60693 0.713378 2.37332e-21)
(1.37324 0.742367 -2.37937e-21)
(1.11025 0.741899 2.37635e-21)
(0.774353 0.797101 2.36264e-21)
(0.348293 0.878812 0)
(-0.108982 0.909269 0)
(-0.574694 0.89287 -2.26148e-21)
(-1.0882 0.791517 1.96902e-21)
(-1.50397 0.668579 0)
(-1.81317 0.653284 0)
(-2.10566 0.638246 -2.00818e-21)
(-2.36076 0.584014 0)
(-2.61587 0.507788 0)
(-2.84258 0.416186 1.7151e-21)
(-2.97961 0.283172 0)
(-3.15534 0.213686 -1.18398e-21)
(-3.35298 0.24026 2.8453e-21)
(-3.549 0.330713 0)
(-3.73263 0.395733 0)
(-3.92808 0.418817 3.89237e-21)
(-4.15986 0.400477 3.57939e-21)
(-4.34369 0.335035 3.29607e-21)
(-4.6285 0.368124 -1.23429e-21)
(-5.03467 0.488912 1.70823e-21)
(-5.29096 0.508938 4.25149e-21)
(-5.51006 0.508674 -2.49647e-21)
(-5.71397 0.470186 -1.53133e-21)
(-5.86039 0.425877 0)
(-6.00082 0.397371 1.36741e-21)
(-6.10725 0.33607 -6.75107e-22)
(-6.18424 0.25236 0)
(-6.3238 0.253824 0)
(-6.44945 0.265931 0)
(-6.53039 0.227068 8.31247e-22)
(-6.56752 0.164478 0)
(-6.57325 0.101907 -7.89528e-22)
(-6.5563 0.0403032 0)
(-6.51802 -0.0134224 -5.05496e-22)
(-6.46358 -0.0611103 0)
(-6.39286 -0.101896 3.8988e-22)
(-6.30854 -0.13748 0)
(-6.21095 -0.168233 -4.68893e-22)
(-6.1016 -0.19518 1.90857e-22)
(-5.98079 -0.218717 0)
(-5.84929 -0.239401 9.46345e-22)
(-5.70758 -0.25753 6.73617e-22)
(-5.55663 -0.273434 8.08869e-22)
(-5.397 -0.287368 0)
(-5.22934 -0.299604 1.00341e-21)
(-5.05423 -0.310377 1.30805e-21)
(-4.87228 -0.319911 0)
(-4.68392 -0.328408 -1.69632e-21)
(-4.48957 -0.336059 3.70275e-21)
(-4.28951 -0.343039 0)
(-4.08399 -0.349501 2.32057e-21)
(-3.87313 -0.355566 0)
(-3.65707 -0.361324 -8.14547e-21)
(-3.43585 -0.366831 0)
(-3.20954 -0.37212 9.39705e-21)
(-2.97818 -0.37721 3.36432e-21)
(-2.74178 -0.382105 -3.47557e-21)
(-2.50035 -0.386789 -7.33691e-21)
(-2.25391 -0.391206 7.71236e-21)
(-2.00252 -0.39524 0)
(-1.74632 -0.398699 0)
(-1.48561 -0.401312 0)
(-1.221 -0.40273 -2.76536e-20)
(-0.953509 -0.402538 -9.58136e-21)
(-0.684495 -0.400303 9.87151e-21)
(-0.415696 -0.395633 0)
(-0.149051 -0.388273 1.02651e-20)
(0.11344 -0.378177 -1.05954e-20)
(0.369923 -0.365536 -1.07795e-20)
(0.618854 -0.350754 0)
(0.859065 -0.334385 0)
(1.08978 -0.317118 0)
(1.31057 -0.299656 -1.12254e-20)
(1.52129 -0.282574 0)
(1.72211 -0.266268 2.2552e-20)
(1.91339 -0.250974 3.38894e-20)
(2.0957 -0.236783 -2.25701e-20)
(2.26964 -0.223687 0)
(2.43585 -0.211609 -1.1218e-20)
(2.5949 -0.200427 0)
(2.74729 -0.189996 -2.22805e-20)
(2.89339 -0.180169 1.1062e-20)
(3.03347 -0.170792 1.09896e-20)
(3.16772 -0.161731 0)
(3.29624 -0.152868 3.2501e-20)
(3.41902 -0.14411 -2.14632e-20)
(3.53607 -0.1354 -1.06363e-20)
(3.64728 -0.126717 0)
(3.75261 -0.118068 -1.04071e-20)
(3.85198 -0.109483 -3.08403e-20)
(3.94536 -0.101015 0)
(4.03273 -0.0927198 -2.0053e-20)
(4.11417 -0.0846593 -1.97972e-20)
(4.18976 -0.0768892 -1.95404e-20)
(4.25967 -0.06946 0)
(4.32411 -0.062419 0)
(4.38333 -0.0558018 0)
(4.43761 -0.0496333 9.26068e-21)
(4.48729 -0.0439282 9.15157e-21)
(4.53273 -0.0386936 0)
(4.57427 -0.0339277 1.78278e-20)
(4.61225 -0.0296149 1.76055e-20)
(4.64705 -0.0257282 0)
(4.67902 -0.0222346 1.71896e-20)
(4.70849 -0.0190969 3.39592e-20)
(4.73573 -0.0162732 -1.6791e-20)
(4.76099 -0.0137189 -1.65886e-20)
(4.78447 -0.011388 0)
(4.80634 -0.00923563 0)
(4.8267 -0.00722044 0)
(4.84564 -0.00530625 -1.58923e-20)
(4.86321 -0.00346238 1.57185e-20)
(4.87943 -0.00166396 3.11154e-20)
(4.89431 0.000107633 -1.53982e-20)
(4.90783 0.00186478 1.52335e-20)
(4.91997 0.00361362 1.50783e-20)
(4.9307 0.00535454 0)
(4.93997 0.00708345 0)
(4.94776 0.00879418 -1.46029e-20)
(4.95404 0.0104806 0)
(4.95883 0.0121343 0)
(4.96214 0.0137338 2.82699e-20)
(4.964 0.015228 0)
(4.96435 0.0165322 1.38235e-20)
(4.9631 0.0175527 -1.36692e-20)
(4.96014 0.018228 0)
(4.95541 0.0185484 1.33607e-20)
(4.94905 0.0185406 0)
(4.94134 0.0182511 0)
(4.93272 0.0177605 -1.29047e-20)
(4.92357 0.0171822 2.55093e-20)
(4.9142 0.0166298 -1.26056e-20)
(4.90473 0.0161517 0)
(4.89518 0.0157184 0)
(4.88549 0.0152325 1.21644e-20)
(4.87578 0.0146345 0)
(4.86607 0.013885 1.18754e-20)
(4.85671 0.013071 0)
(4.84752 0.0122047 0)
(4.83891 0.0114827 0)
(4.83001 0.0108122 1.13147e-20)
(4.82173 0.0105708 0)
(4.81183 0.0103777 -1.1046e-20)
(4.803 0.0110942 0)
(4.78978 0.0116012 0)
(4.77968 0.0140296 2.13217e-20)
(4.75885 0.015408 -2.10791e-20)
(4.74737 0.0211993 0)
(4.70948 0.0238324 0)
(4.69801 0.0374526 0)
(4.621 0.0434609 6.07467e-20)
(4.6169 0.0792985 0)
(4.45519 0.102822 -3.98235e-20)
(0.0268365 0.250529 2.33627e-23)
(0.0936283 0.158758 -1.2971e-20)
(0.284384 -0.194915 0)
(0.625273 -0.714042 1.26393e-20)
(0.996521 -1.17842 0)
(1.33828 -1.49514 0)
(1.62591 -1.65178 -3.38425e-22)
(1.85325 -1.66912 -5.97351e-21)
(2.0242 -1.5788 -5.32802e-21)
(2.14765 -1.4134 -5.61343e-21)
(2.23215 -1.20318 0)
(2.28318 -0.971413 0)
(2.30548 -0.73351 4.46124e-21)
(2.3025 -0.498955 8.59278e-21)
(2.27625 -0.273603 -8.32756e-21)
(2.22762 -0.0607896 0)
(2.15821 0.13764 -8.00025e-21)
(2.0693 0.321645 4.36312e-21)
(1.96284 0.490829 0)
(1.83909 0.646124 -7.95787e-21)
(1.70032 0.784522 -4.38144e-21)
(1.54705 0.901686 8.12127e-21)
(1.38119 1.00104 4.46385e-21)
(1.20998 1.04711 0)
(0.98672 1.12727 -8.36022e-21)
(0.683345 1.29642 -8.37765e-21)
(0.352935 1.44877 0)
(0.00375041 1.57101 -8.27644e-21)
(-0.358664 1.64034 0)
(-0.713656 1.65391 -7.97547e-21)
(-1.08712 1.60312 -4.19925e-21)
(-1.46582 1.48745 0)
(-1.8433 1.34832 0)
(-2.20267 1.20803 0)
(-2.48022 1.06804 0)
(-2.70183 0.933917 0)
(-2.91495 0.819571 0)
(-3.0729 0.654813 -5.05503e-21)
(-3.27165 0.556001 7.34873e-21)
(-3.48975 0.558852 0)
(-3.7003 0.620871 0)
(-3.90457 0.678142 0)
(-4.1449 0.743193 -7.98481e-22)
(-4.4317 0.796159 -3.58372e-21)
(-4.78307 0.8601 -5.78923e-21)
(-5.08338 0.882805 5.26366e-21)
(-5.33756 0.867737 1.96391e-21)
(-5.51924 0.810851 -2.63285e-21)
(-5.67123 0.743011 8.95058e-22)
(-5.7811 0.653155 -1.48253e-21)
(-5.87628 0.580229 0)
(-5.95815 0.533706 -1.26694e-21)
(-5.99708 0.443932 7.80842e-22)
(-6.09241 0.403152 0)
(-6.19463 0.404978 0)
(-6.24368 0.354111 6.90577e-22)
(-6.25317 0.267186 0)
(-6.23863 0.176201 0)
(-6.20952 0.086265 3.26875e-22)
(-6.16649 0.00213992 -2.3347e-22)
(-6.11282 -0.0726675 4.94803e-22)
(-6.04776 -0.139209 0)
(-5.9719 -0.197343 -3.7784e-22)
(-5.88469 -0.248831 0)
(-5.78635 -0.294349 1.8253e-22)
(-5.67676 -0.335002 -5.68651e-22)
(-5.5564 -0.371217 9.06581e-22)
(-5.42569 -0.403474 4.20131e-22)
(-5.2854 -0.43203 0)
(-5.13627 -0.45723 -2.47697e-21)
(-4.97915 -0.479398 0)
(-4.81478 -0.498893 -5.97521e-21)
(-4.64382 -0.516067 -4.61515e-21)
(-4.46683 -0.531269 -5.41278e-21)
(-4.28431 -0.544827 6.23815e-21)
(-4.09663 -0.557053 -1.07782e-20)
(-3.90409 -0.568236 0)
(-3.70688 -0.578633 0)
(-3.50512 -0.588456 9.66351e-21)
(-3.29886 -0.597852 1.59149e-20)
(-3.08811 -0.606911 0)
(-2.87284 -0.615678 -6.23189e-21)
(-2.65296 -0.624173 0)
(-2.42831 -0.632401 2.08304e-20)
(-2.19868 -0.640341 2.78606e-22)
(-1.96377 -0.647905 -2.8122e-22)
(-1.72329 -0.654898 -1.60442e-20)
(-1.47707 -0.660983 0)
(-1.22516 -0.665664 1.74445e-20)
(-0.968009 -0.668297 2.65155e-22)
(-0.706559 -0.668143 0)
(-0.442294 -0.664435 0)
(-0.177241 -0.656482 0)
(0.0861867 -0.643822 -2.06437e-20)
(0.345467 -0.626387 0)
(0.598289 -0.604577 0)
(0.842818 -0.579224 0)
(1.07777 -0.551424 0)
(1.30246 -0.522393 0)
(1.51666 -0.493241 -2.22824e-20)
(1.72053 -0.464861 0)
(1.91449 -0.437875 -2.25492e-20)
(2.09914 -0.412644 -2.25745e-20)
(2.27517 -0.389305 2.25679e-20)
(2.44328 -0.367826 0)
(2.60413 -0.348062 2.24713e-20)
(2.75828 -0.329797 0)
(2.9062 -0.312774 2.22792e-20)
(3.04821 -0.296733 -2.21516e-20)
(3.18452 -0.281415 -6.59258e-20)
(3.31521 -0.266595 0)
(3.44032 -0.252087 -6.48996e-20)
(3.55977 -0.237746 -2.13903e-20)
(3.67346 -0.223483 0)
(3.78128 -0.209266 -4.1992e-20)
(3.88314 -0.195113 -4.15286e-20)
(3.97897 -0.18108 6.16e-20)
(4.06874 -0.167247 0)
(4.15249 -0.153707 2.00508e-20)
(4.23028 -0.140559 1.97951e-20)
(4.30226 -0.127898 5.85688e-20)
(4.36862 -0.115809 0)
(4.42958 -0.104367 0)
(4.48543 -0.0936324 0)
(4.53646 -0.0836508 1.84932e-20)
(4.58302 -0.0744535 0)
(4.62545 -0.066056 0)
(4.66413 -0.0584532 -1.78268e-20)
(4.69944 -0.0516239 -1.76046e-20)
(4.73175 -0.0455321 0)
(4.7614 -0.0401277 0)
(4.78873 -0.0353482 -3.39576e-20)
(4.81404 -0.0311218 0)
(4.83758 -0.0273708 3.31882e-20)
(4.85958 -0.0240153 3.2804e-20)
(4.88022 -0.0209778 0)
(4.89961 -0.0181858 0)
(4.91788 -0.0155742 -3.17647e-20)
(4.93508 -0.0130868 -9.41442e-24)
(4.95126 -0.0106779 -7.974e-24)
(4.96646 -0.00831241 0)
(4.98067 -0.00596644 -6.09338e-20)
(4.9939 -0.00362804 0)
(5.00614 -0.0012963 0)
(5.01739 0.00102171 0)
(5.02768 0.00331583 2.92064e-20)
(5.03706 0.00557613 0)
(5.04558 0.00778962 -5.7157e-20)
(5.05329 0.00993032 -2.82683e-20)
(5.06018 0.0119526 0)
(5.0662 0.0138012 -2.76461e-20)
(5.0712 0.0154343 0)
(5.07505 0.0168302 0)
(5.0776 0.0179587 -8.01593e-20)
(5.07878 0.018755 5.28278e-20)
(5.07862 0.0191411 0)
(5.07727 0.0191008 5.16152e-20)
(5.07506 0.0187283 -2.55072e-20)
(5.07247 0.0182157 0)
(5.0699 0.0177384 0)
(5.06754 0.0173698 0)
(5.06525 0.0170111 -7.29795e-20)
(5.06276 0.0165254 0)
(5.05975 0.0157666 -2.37482e-20)
(5.05625 0.0148069 0)
(5.05224 0.0136946 0)
(5.04817 0.012759 0)
(5.0438 0.0119691 0)
(5.03966 0.0118196 0)
(5.0347 0.01191 0)
(5.02997 0.0131746 -4.36463e-20)
(5.023 0.0144579 0)
(5.01655 0.0178879 -2.1319e-20)
(5.00517 0.0207222 6.32119e-20)
(4.99574 0.0280539 0)
(4.97594 0.0337371 0)
(4.9622 0.0498438 -4.07909e-20)
(4.92739 0.06353 -4.04721e-20)
(4.91063 0.103431 4.00133e-20)
(4.86031 0.145958 3.98153e-20)
(0.0145183 0.0893458 1.9549e-20)
(0.235416 -0.332819 1.93544e-20)
(0.626785 -1.12181 1.26116e-20)
(1.01197 -1.72034 5.93506e-21)
(1.32547 -2.05145 0)
(1.54168 -2.15043 -1.12367e-20)
(1.66608 -2.07712 4.9411e-21)
(1.71843 -1.89093 0)
(1.72272 -1.63811 5.33029e-21)
(1.70334 -1.35362 0)
(1.6762 -1.06868 -8.76146e-21)
(1.64478 -0.798022 0)
(1.60772 -0.538723 -4.45791e-21)
(1.5631 -0.287839 -8.58505e-21)
(1.50813 -0.0456066 8.31911e-21)
(1.44075 0.186482 0)
(1.35954 0.406232 7.99155e-21)
(1.26517 0.611064 0)
(1.15963 0.798274 0)
(1.04595 0.96441 7.95195e-21)
(0.925491 1.11136 0)
(0.800256 1.22833 -7.07753e-22)
(0.667885 1.31449 0)
(0.481594 1.4393 0)
(0.244171 1.62834 7.65361e-22)
(-0.00458102 1.81012 8.38606e-21)
(-0.257534 1.95897 7.56858e-21)
(-0.506869 2.07083 8.28749e-21)
(-0.755791 2.13456 0)
(-1.00706 2.15267 1.52046e-20)
(-1.26955 2.1267 0)
(-1.55711 2.05944 6.74569e-21)
(-1.866 1.9555 0)
(-2.18164 1.80687 0)
(-2.47189 1.62154 -5.67433e-21)
(-2.73666 1.43152 0)
(-2.97458 1.23779 4.82586e-21)
(-3.19325 1.04644 6.91281e-22)
(-3.44096 0.979071 -8.53359e-21)
(-3.69043 1.00216 6.86574e-21)
(-3.96507 1.11309 0)
(-4.20393 1.17956 0)
(-4.45277 1.23682 1.3367e-21)
(-4.71967 1.27876 0)
(-4.95936 1.2835 2.49082e-21)
(-5.13454 1.22886 -2.20814e-21)
(-5.27506 1.14095 -1.96116e-21)
(-5.38235 1.03399 0)
(-5.47307 0.918863 1.5967e-21)
(-5.54385 0.796877 1.47457e-21)
(-5.61357 0.687069 -8.13264e-22)
(-5.67521 0.605417 1.25843e-21)
(-5.70786 0.536208 1.13917e-21)
(-5.77964 0.504899 0)
(-5.82453 0.460498 0)
(-5.81708 0.362934 -6.80039e-22)
(-5.79083 0.248323 0)
(-5.75304 0.136686 0)
(-5.70546 0.0293664 4.28801e-22)
(-5.64906 -0.0685042 2.07406e-22)
(-5.58547 -0.156793 0)
(-5.51324 -0.235987 0)
(-5.43307 -0.306837 0)
(-5.34351 -0.370792 0)
(-5.24466 -0.428671 2.40606e-22)
(-5.13554 -0.481309 2.23701e-22)
(-5.0163 -0.528932 -8.73846e-22)
(-4.88685 -0.571706 -1.99403e-21)
(-4.74795 -0.609669 0)
(-4.60031 -0.643072 5.6731e-22)
(-4.44497 -0.672299 0)
(-4.28284 -0.697859 3.82692e-21)
(-4.11476 -0.720263 4.62308e-22)
(-3.94142 -0.740013 5.38898e-21)
(-3.76341 -0.757559 -6.21595e-21)
(-3.58119 -0.773332 3.87787e-22)
(-3.39515 -0.787729 0)
(-3.20558 -0.801118 -8.42676e-21)
(-3.01267 -0.813806 -9.64769e-21)
(-2.81659 -0.826025 -2.06658e-20)
(-2.61744 -0.837921 0)
(-2.41531 -0.849582 1.18401e-20)
(-2.21017 -0.861081 0)
(-2.00184 -0.87249 -2.72227e-20)