/*--------------------------------*- C++ -*----------------------------------*\
  =========                 |
  \\      /  F ield         | OpenFOAM: The Open Source CFD Toolbox
   \\    /   O peration     | Website:  https://openfoam.org
    \\  /    A nd           | Version:  6
     \\/     M anipulation  |
\*---------------------------------------------------------------------------*/
FoamFile
{
    version     2.0;
    format      ascii;
    class       volSymmTensorField;
    location    "0.05";
    object      UPrime2Mean;
}
// * * * * * * * * * * * * * * * * * * * * * * * * * * * * * * * * * * * * * //

dimensions      [0 2 -2 0 0 0 0];

internalField   nonuniform List<symmTensor> 
12225
(
(0.0491497 0.000969594 0 0.00394632 0 0)
(0.0193948 0.000693994 0 0.00236851 0 0)
(0.0182684 0.000255686 0 0.00174005 0 0)
(0.025155 -0.000183836 0 0.00132752 0 0)
(0.0336812 -0.000578692 0 0.00104159 0 0)
(0.047515 -0.000936081 0 0.000834988 0 0)
(0.0711725 -0.00162927 0 0.000703515 0 0)
(0.105938 -0.00211859 0 0.000585531 0 0)
(0.157823 -0.00414432 0 0.000599559 0 0)
(0.224609 -0.0039628 0 0.000470068 0 0)
(0.32916 -0.0110019 0 0.000786294 0 0)
(0.453378 -0.0065017 0 0.000574378 0 0)
(0.678101 -0.031115 0 0.00201787 0 0)
(0.924768 -0.00927453 0 0.00178647 0 0)
(1.46727 -0.0985371 0 0.00903043 0 0)
(2.0502 -0.0134513 0 0.0103484 0 0)
(3.63403 -0.370045 0 0.0569787 0 0)
(5.75367 0.00255289 0 0.0362754 0 0)
(0.0516438 0.000205291 0 0.0029372 0 0)
(0.0244037 0.000191946 0 0.00144918 0 0)
(0.0164578 -0.000221531 0 0.00107891 0 0)
(0.0141111 -0.00046042 0 0.000968715 0 0)
(0.0126165 -0.000600542 0 0.000942735 0 0)
(0.0127378 -0.000925435 0 0.00098657 0 0)
(0.0151548 -0.00158335 0 0.00105023 0 0)
(0.020841 -0.00287359 0 0.00126868 0 0)
(0.0306446 -0.00451729 0 0.00141064 0 0)
(0.0476524 -0.00777381 0 0.00200259 0 0)
(0.0730488 -0.0111697 0 0.00233308 0 0)
(0.117108 -0.0195181 0 0.00388133 0 0)
(0.179324 -0.0274389 0 0.00493384 0 0)
(0.294354 -0.0506292 0 0.00950837 0 0)
(0.451232 -0.0751806 0 0.0141703 0 0)
(0.781605 -0.147694 0 0.0300293 0 0)
(1.21389 -0.256479 0 0.0569621 0 0)
(2.23482 -0.54756 0 0.150927 0 0)
(0.0527907 0.00133502 0 0.00395764 0 0)
(0.0246806 0.0014482 0 0.00214267 0 0)
(0.0168614 0.000715161 0 0.00154383 0 0)
(0.0153059 7.91085e-05 0 0.00129961 0 0)
(0.0143266 -0.000412852 0 0.00120704 0 0)
(0.0146613 -0.00095841 0 0.00121507 0 0)
(0.0170398 -0.00177758 0 0.00134883 0 0)
(0.0218686 -0.00304146 0 0.00157703 0 0)
(0.0297406 -0.00509705 0 0.0020688 0 0)
(0.0418023 -0.00809047 0 0.00275617 0 0)
(0.0595677 -0.0130678 0 0.00409059 0 0)
(0.0860741 -0.0202386 0 0.00602669 0 0)
(0.125361 -0.0326758 0 0.00991623 0 0)
(0.184655 -0.0515747 0 0.0161974 0 0)
(0.274743 -0.0854982 0 0.0296396 0 0)
(0.409823 -0.144866 0 0.0559402 0 0)
(0.611366 -0.255227 0 0.116338 0 0)
(0.845475 -0.493995 0 0.320208 0 0)
(0.0464777 0.000767684 0 0.00485617 0 0)
(0.0180157 0.00060455 0 0.00273795 0 0)
(0.011467 -0.000148538 0 0.00203636 0 0)
(0.0112528 -0.000809473 0 0.00181255 0 0)
(0.0114067 -0.00135754 0 0.00180465 0 0)
(0.0125401 -0.00211375 0 0.00196842 0 0)
(0.0154296 -0.00334103 0 0.00230707 0 0)
(0.020675 -0.00526789 0 0.00287539 0 0)
(0.0289701 -0.00812528 0 0.00376811 0 0)
(0.041511 -0.0123281 0 0.00511195 0 0)
(0.0594351 -0.0186168 0 0.00733044 0 0)
(0.0856568 -0.0280106 0 0.0107135 0 0)
(0.122544 -0.0430555 0 0.01688 0 0)
(0.176525 -0.0659346 0 0.0268344 0 0)
(0.250833 -0.105373 0 0.0474748 0 0)
(0.353721 -0.167112 0 0.0844317 0 0)
(0.478042 -0.278415 0 0.173676 0 0)
(0.600181 -0.440794 0 0.345003 0 0)
(0.0555771 0.000621915 0 0.00487763 0 0)
(0.0244437 0.0013537 0 0.00269859 0 0)
(0.0157377 0.000718175 0 0.00192552 0 0)
(0.0142279 -1.16512e-05 0 0.00171762 0 0)
(0.0135015 -0.000551593 0 0.00176906 0 0)
(0.0138246 -0.00125305 0 0.00202656 0 0)
(0.0156776 -0.00244317 0 0.00252076 0 0)
(0.0194461 -0.00440663 0 0.00333605 0 0)
(0.0258975 -0.00745042 0 0.00460883 0 0)
(0.036077 -0.0120683 0 0.00661094 0 0)
(0.051519 -0.0190262 0 0.00972835 0 0)
(0.0741687 -0.0297013 0 0.0148052 0 0)
(0.107103 -0.0460679 0 0.0231495 0 0)
(0.153183 -0.0718551 0 0.0377329 0 0)
(0.216707 -0.112174 0 0.0635958 0 0)
(0.295834 -0.176292 0 0.113214 0 0)
(0.387337 -0.272415 0 0.204498 0 0)
(0.466776 -0.401153 0 0.373187 0 0)
(0.0523825 0.00129088 0 0.00474782 0 0)
(0.0227874 0.000921944 0 0.00288964 0 0)
(0.016403 -0.000199929 0 0.00227222 0 0)
(0.0166212 -0.00120935 0 0.00223744 0 0)
(0.0169414 -0.00200058 0 0.00249738 0 0)
(0.018146 -0.00305953 0 0.00301091 0 0)
(0.0211464 -0.00479593 0 0.00383078 0 0)
(0.0263794 -0.00747937 0 0.00507556 0 0)
(0.034333 -0.0114269 0 0.00697421 0 0)
(0.0456324 -0.0171405 0 0.00984227 0 0)
(0.0613432 -0.025527 0 0.0142956 0 0)
(0.0828994 -0.0378431 0 0.0212802 0 0)
(0.112593 -0.0562671 0 0.032623 0 0)
(0.152055 -0.0837149 0 0.0514736 0 0)
(0.20315 -0.124755 0 0.0836369 0 0)
(0.262692 -0.184596 0 0.139632 0 0)
(0.326386 -0.266361 0 0.233743 0 0)
(0.377488 -0.366576 0 0.390239 0 0)
(0.0480591 0.0011582 0 0.00514779 0 0)
(0.0199808 0.00147762 0 0.0033029 0 0)
(0.0137406 0.000526719 0 0.00244154 0 0)
(0.0135699 -0.000616317 0 0.00238495 0 0)
(0.0133851 -0.00157112 0 0.00274269 0 0)
(0.0138081 -0.00271577 0 0.00346321 0 0)
(0.0155189 -0.00448401 0 0.00460351 0 0)
(0.0189405 -0.00721033 0 0.00631144 0 0)
(0.0247233 -0.0112569 0 0.00884903 0 0)
(0.0336061 -0.0171635 0 0.0126758 0 0)
(0.0465105 -0.0258031 0 0.0185025 0 0)
(0.0643844 -0.0384557 0 0.0275782 0 0)
(0.0885649 -0.0569671 0 0.0418662 0 0)
(0.119533 -0.083828 0 0.0649729 0 0)
(0.157658 -0.122033 0 0.102235 0 0)
(0.199624 -0.174219 0 0.163002 0 0)
(0.241525 -0.240661 0 0.257578 0 0)
(0.272576 -0.315866 0 0.40139 0 0)
(0.0507799 0.00019144 0 0.0059687 0 0)
(0.0226219 0.000776407 0 0.00400417 0 0)
(0.0150585 -0.000232564 0 0.00322259 0 0)
(0.0138854 -0.00127905 0 0.00317851 0 0)
(0.0132272 -0.0021004 0 0.00366901 0 0)
(0.0136468 -0.00324647 0 0.00464273 0 0)
(0.0155809 -0.0051687 0 0.00613348 0 0)
(0.019153 -0.00815257 0 0.00833558 0 0)
(0.0247518 -0.0125429 0 0.0116109 0 0)
(0.0329162 -0.0188691 0 0.0165247 0 0)
(0.0443305 -0.0279484 0 0.0238908 0 0)
(0.0595743 -0.0409132 0 0.0351078 0 0)
(0.0794002 -0.0592797 0 0.0522319 0 0)
(0.103635 -0.0848404 0 0.0788684 0 0)
(0.131919 -0.119389 0 0.119716 0 0)
(0.161039 -0.163784 0 0.182547 0 0)
(0.188217 -0.21677 0 0.274465 0 0)
(0.206231 -0.272363 0 0.406192 0 0)
(0.0553203 0.00213563 0 0.00555173 0 0)
(0.0244693 0.00141361 0 0.00385825 0 0)
(0.0161759 -0.000169418 0 0.0032417 0 0)
(0.0149033 -0.00167021 0 0.003406 0 0)
(0.0142057 -0.00264303 0 0.00410902 0 0)
(0.0145026 -0.00373538 0 0.00536473 0 0)
(0.0162614 -0.00565054 0 0.00729706 0 0)
(0.0195518 -0.00881109 0 0.0101589 0 0)
(0.024589 -0.013532 0 0.0143504 0 0)
(0.0317072 -0.0202476 0 0.0205206 0 0)
(0.0413738 -0.0296551 0 0.029593 0 0)
(0.0539978 -0.0427257 0 0.0430879 0 0)
(0.0699791 -0.060647 0 0.0630797 0 0)
(0.0888675 -0.0846145 0 0.0929637 0 0)
(0.109824 -0.115472 0 0.136729 0 0)
(0.130148 -0.152911 0 0.200562 0 0)
(0.147504 -0.19483 0 0.289148 0 0)
(0.157535 -0.23571 0 0.409457 0 0)
(0.0511398 0.000161598 0 0.00599037 0 0)
(0.0223249 4.26248e-05 0 0.00452058 0 0)
(0.0148625 -0.0012165 0 0.00387798 0 0)
(0.0140483 -0.00225215 0 0.00405565 0 0)
(0.0135836 -0.00295096 0 0.00493122 0 0)
(0.0140061 -0.00405275 0 0.00650914 0 0)
(0.015675 -0.00610934 0 0.00890075 0 0)
(0.018522 -0.00936143 0 0.0123768 0 0)
(0.0226642 -0.0140177 0 0.0173922 0 0)
(0.0283157 -0.0204629 0 0.0246632 0 0)
(0.035735 -0.0292919 0 0.0351638 0 0)
(0.0450376 -0.0412599 0 0.0504267 0 0)
(0.0562594 -0.0571205 0 0.0724169 0 0)
(0.0688075 -0.0774829 0 0.104168 0 0)
(0.081769 -0.102351 0 0.148877 0 0)
(0.0931677 -0.1308 0 0.211319 0 0)
(0.101425 -0.160318 0 0.294181 0 0)
(0.104408 -0.186486 0 0.402073 0 0)
(0.0483204 0.00136936 0 0.00708525 0 0)
(0.0209235 0.00085515 0 0.00579114 0 0)
(0.0148697 -0.00136036 0 0.00512453 0 0)
(0.0149764 -0.00328939 0 0.0054533 0 0)
(0.0149855 -0.00456662 0 0.00656991 0 0)
(0.0154497 -0.0059435 0 0.00849236 0 0)
(0.0168947 -0.0081352 0 0.0114104 0 0)
(0.0193528 -0.0115364 0 0.0156448 0 0)
(0.0229207 -0.0163795 0 0.0216686 0 0)
(0.0276973 -0.0229064 0 0.0302214 0 0)
(0.0337556 -0.0314948 0 0.0422878 0 0)
(0.0409334 -0.0425747 0 0.0593432 0 0)
(0.0490187 -0.0565384 0 0.0831432 0 0)
(0.0572633 -0.0733889 0 0.116265 0 0)
(0.0649325 -0.0927247 0 0.161085 0 0)
(0.0706455 -0.113023 0 0.221145 0 0)
(0.0738901 -0.132201 0 0.297654 0 0)
(0.0737787 -0.146289 0 0.393802 0 0)
(0.0487185 0.000344775 0 0.0074136 0 0)
(0.0204462 0.000365044 0 0.00541342 0 0)
(0.0134852 -0.000810645 0 0.00470985 0 0)
(0.0130605 -0.00180079 0 0.00516195 0 0)
(0.0123921 -0.00241352 0 0.00650752 0 0)
(0.011848 -0.00331329 0 0.00872921 0 0)
(0.0120118 -0.00507032 0 0.012004 0 0)
(0.013071 -0.00793525 0 0.0166947 0 0)
(0.015129 -0.0120303 0 0.0233235 0 0)
(0.0181442 -0.017512 0 0.0326493 0 0)
(0.021999 -0.0246595 0 0.0456209 0 0)
(0.0264537 -0.0337348 0 0.0636091 0 0)
(0.0313674 -0.0449314 0 0.0881174 0 0)
(0.0361669 -0.0580129 0 0.121306 0 0)
(0.0404949 -0.0724314 0 0.164862 0 0)
(0.0433656 -0.0866585 0 0.221453 0 0)
(0.0447434 -0.0990106 0 0.291297 0 0)
(0.0442335 -0.10624 0 0.376795 0 0)
(0.0528822 0.00150113 0 0.00740844 0 0)
(0.0221411 0.00123783 0 0.00594002 0 0)
(0.0144459 -0.000994615 0 0.00553227 0 0)
(0.014368 -0.00304346 0 0.00626554 0 0)
(0.0143927 -0.00420654 0 0.0079577 0 0)
(0.0145601 -0.00523214 0 0.0106834 0 0)
(0.0152226 -0.00695138 0 0.0146134 0 0)
(0.0164155 -0.00977056 0 0.0200741 0 0)
(0.0182323 -0.013798 0 0.0275698 0 0)
(0.0206867 -0.0190393 0 0.0378514 0 0)
(0.0236605 -0.0255564 0 0.0518122 0 0)
(0.0268577 -0.0333899 0 0.0706904 0 0)
(0.0300467 -0.0425421 0 0.0957244 0 0)
(0.0327744 -0.052612 0 0.128669 0 0)
(0.0348132 -0.0629814 0 0.170645 0 0)
(0.0356545 -0.072172 0 0.223614 0 0)
(0.0355566 -0.0788696 0 0.287188 0 0)
(0.0344849 -0.0803033 0 0.363189 0 0)
(0.0545492 0.00244346 0 0.00744546 0 0)
(0.0246564 0.00168864 0 0.00625667 0 0)
(0.016242 -0.000372629 0 0.00581945 0 0)
(0.0159184 -0.00197086 0 0.00677853 0 0)
(0.0159404 -0.00284888 0 0.00866459 0 0)
(0.0158005 -0.00371394 0 0.0115341 0 0)
(0.0157617 -0.00521482 0 0.0156886 0 0)
(0.0159641 -0.00763312 0 0.0215137 0 0)
(0.0165856 -0.0109996 0 0.029484 0 0)
(0.0176582 -0.0152579 0 0.0402753 0 0)
(0.0190281 -0.0203767 0 0.0546631 0 0)
(0.0204069 -0.026268 0 0.0737047 0 0)
(0.02157 -0.032743 0 0.0983573 0 0)
(0.0222308 -0.0392643 0 0.129974 0 0)
(0.0222607 -0.0451355 0 0.16915 0 0)
(0.0215413 -0.0490637 0 0.217318 0 0)
(0.0204081 -0.0499859 0 0.273557 0 0)
(0.0193641 -0.045909 0 0.339404 0 0)
(0.0538415 0.00232271 0 0.00898286 0 0)
(0.0234413 0.00170687 0 0.00857805 0 0)
(0.0146421 -0.00105367 0 0.008344 0 0)
(0.013701 -0.0030558 0 0.00936264 0 0)
(0.0129514 -0.00384425 0 0.0115794 0 0)
(0.0122064 -0.00436513 0 0.0149508 0 0)
(0.0118775 -0.00544004 0 0.0196532 0 0)
(0.0119736 -0.00736779 0 0.0260564 0 0)
(0.0124289 -0.0100559 0 0.0346258 0 0)
(0.013109 -0.0132657 0 0.0459672 0 0)
(0.013826 -0.0167969 0 0.0607043 0 0)
(0.0143968 -0.020425 0 0.0796567 0 0)
(0.0147446 -0.0238714 0 0.103441 0 0)
(0.0148065 -0.0265925 0 0.133005 0 0)
(0.0146236 -0.0279804 0 0.168479 0 0)
(0.0143372 -0.0270379 0 0.21086 0 0)
(0.0143783 -0.0230247 0 0.258953 0 0)
(0.0153028 -0.0146328 0 0.314084 0 0)
(0.0541812 0.0021595 0 0.00906802 0 0)
(0.0241785 0.00207733 0 0.00953465 0 0)
(0.0152169 -0.000244298 0 0.00957531 0 0)
(0.0138575 -0.00163405 0 0.0102016 0 0)
(0.0129334 -0.00175115 0 0.0121282 0 0)
(0.0122354 -0.00152454 0 0.0155021 0 0)
(0.0118398 -0.00164241 0 0.0203389 0 0)
(0.0115413 -0.0022856 0 0.0268589 0 0)
(0.0112735 -0.00327153 0 0.0354394 0 0)
(0.0110159 -0.00427681 0 0.0465743 0 0)
(0.0107304 -0.00503764 0 0.060725 0 0)
(0.0104243 -0.00529225 0 0.0784649 0 0)
(0.0102219 -0.00478048 0 0.100132 0 0)
(0.0102736 -0.00303714 0 0.126318 0 0)
(0.0107831 0.000377431 0 0.156852 0 0)
(0.0120334 0.00618658 0 0.192385 0 0)
(0.014416 0.0147748 0 0.231668 0 0)
(0.0185082 0.0269988 0 0.27581 0 0)
(0.0541678 0.00244618 0 0.0102286 0 0)
(0.0242333 0.00248641 0 0.0106361 0 0)
(0.013676 -4.04773e-05 0 0.0102484 0 0)
(0.0112619 -0.00135926 0 0.0112243 0 0)
(0.0100071 -0.00119993 0 0.0135565 0 0)
(0.0095191 -0.000539853 0 0.0171528 0 0)
(0.00941718 -0.000101602 0 0.0220911 0 0)
(0.00915989 -2.01432e-06 0 0.0286257 0 0)
(0.00876709 2.73641e-05 0 0.037066 0 0)
(0.0084794 0.000373021 0 0.0477656 0 0)
(0.00840963 0.00133034 0 0.0609956 0 0)
(0.00859656 0.00318174 0 0.0770884 0 0)
(0.00909662 0.00612611 0 0.0961454 0 0)
(0.0100712 0.0105745 0 0.118495 0 0)
(0.0116768 0.0167332 0 0.143805 0 0)
(0.0143249 0.0252035 0 0.172511 0 0)
(0.0182507 0.0359079 0 0.203472 0 0)
(0.0241837 0.049696 0 0.237622 0 0)
(0.0529401 0.00329569 0 0.0109493 0 0)
(0.0220202 0.0020188 0 0.0115825 0 0)
(0.0132231 -0.000878164 0 0.011334 0 0)
(0.0113869 -0.00177786 0 0.0119808 0 0)
(0.00983477 -0.000992839 0 0.0139578 0 0)
(0.00878226 0.00019253 0 0.0171977 0 0)
(0.00832541 0.00111693 0 0.0216268 0 0)
(0.0081735 0.00183868 0 0.0273373 0 0)
(0.00827866 0.00276257 0 0.0345029 0 0)
(0.00866847 0.00430798 0 0.0433627 0 0)
(0.00931669 0.00674298 0 0.0540785 0 0)
(0.0102851 0.0102729 0 0.066828 0 0)
(0.0117653 0.0150198 0 0.0815773 0 0)
(0.0140656 0.0212295 0 0.0984876 0 0)
(0.0174308 0.0289714 0 0.117224 0 0)
(0.0222345 0.038585 0 0.13811 0 0)
(0.0286312 0.0499047 0 0.16024 0 0)
(0.0371129 0.0634535 0 0.184369 0 0)
(0.0498885 0.00206593 0 0.0107305 0 0)
(0.0219167 0.00145648 0 0.0109537 0 0)
(0.0143125 -0.000416356 0 0.00971787 0 0)
(0.012362 -0.000840615 0 0.00996425 0 0)
(0.0105993 -0.000106344 0 0.0117414 0 0)
(0.00946245 0.0010263 0 0.0146711 0 0)
(0.00897968 0.00228053 0 0.0185208 0 0)
(0.00894004 0.00378969 0 0.0232759 0 0)
(0.00942435 0.00582611 0 0.0290425 0 0)
(0.0105278 0.00862715 0 0.0359716 0 0)
(0.0122307 0.0123082 0 0.0441386 0 0)
(0.0145786 0.0169543 0 0.0536229 0 0)
(0.0176982 0.0226041 0 0.0643475 0 0)
(0.0218434 0.0294186 0 0.0763643 0 0)
(0.0271408 0.0374125 0 0.0893816 0 0)
(0.0339211 0.04683 0 0.103598 0 0)
(0.0421664 0.0574676 0 0.118367 0 0)
(0.0523648 0.0697074 0 0.134227 0 0)
(0.0548028 0.00194945 0 0.0114821 0 0)
(0.021713 0.00280095 0 0.00901457 0 0)
(0.0128396 0.000999632 0 0.00703773 0 0)
(0.0113855 0.000348621 0 0.0072683 0 0)
(0.0108229 0.00100222 0 0.0085087 0 0)
(0.011004 0.00222703 0 0.0104149 0 0)
(0.011353 0.00360244 0 0.0129764 0 0)
(0.011567 0.00513891 0 0.01622 0 0)
(0.012057 0.00709634 0 0.020165 0 0)
(0.0132897 0.00976235 0 0.0248429 0 0)
(0.0154191 0.0133016 0 0.0302567 0 0)
(0.0184574 0.0177859 0 0.0364276 0 0)
(0.0224174 0.0231977 0 0.0432996 0 0)
(0.0274145 0.0295719 0 0.0509072 0 0)
(0.0335309 0.0368625 0 0.0590669 0 0)
(0.0409958 0.0451586 0 0.0679076 0 0)
(0.0498536 0.0543072 0 0.0770418 0 0)
(0.0603805 0.0644966 0 0.0867892 0 0)
(0.0502314 0.00100338 0 0.0100857 0 0)
(0.01962 0.00131393 0 0.00833547 0 0)
(0.0128544 0.000129032 0 0.00680187 0 0)
(0.0124221 -7.31375e-05 0 0.00705696 0 0)
(0.01195 0.000763543 0 0.00816024 0 0)
(0.0119018 0.00207841 0 0.00977766 0 0)
(0.0123313 0.00366467 0 0.0118248 0 0)
(0.0130974 0.00560933 0 0.014292 0 0)
(0.0144022 0.00805312 0 0.0172192 0 0)
(0.0164826 0.0110941 0 0.0206695 0 0)
(0.0194348 0.0147799 0 0.0246583 0 0)
(0.0233561 0.0191597 0 0.0291792 0 0)
(0.0283802 0.0242565 0 0.0341533 0 0)
(0.0346869 0.0301348 0 0.039567 0 0)
(0.0423298 0.0367618 0 0.0452746 0 0)
(0.05146 0.0441916 0 0.0513655 0 0)
(0.062023 0.0522679 0 0.0575858 0 0)
(0.0741958 0.0611082 0 0.0641523 0 0)
(0.0540066 0.00198967 0 0.00960033 0 0)
(0.024739 0.00230035 0 0.00813037 0 0)
(0.0169039 0.00139969 0 0.0062609 0 0)
(0.0151331 0.0012235 0 0.0058365 0 0)
(0.0136369 0.00187471 0 0.00627043 0 0)
(0.0131724 0.00299285 0 0.00719574 0 0)
(0.0137102 0.00436539 0 0.00843199 0 0)
(0.0148426 0.00600815 0 0.00991556 0 0)
(0.0166032 0.00802357 0 0.0116769 0 0)
(0.0192107 0.0105111 0 0.0137848 0 0)
(0.0227569 0.0135379 0 0.0162622 0 0)
(0.0272947 0.0171598 0 0.0191002 0 0)
(0.0328806 0.0213874 0 0.022241 0 0)
(0.0396616 0.0262584 0 0.0256728 0 0)
(0.0476742 0.0317206 0 0.0293012 0 0)
(0.0570904 0.0378036 0 0.0331918 0 0)
(0.0678943 0.0443823 0 0.0371788 0 0)
(0.0802584 0.0515392 0 0.0413839 0 0)
(0.0528884 0.00230438 0 0.00933181 0 0)
(0.0241076 0.0014214 0 0.00729108 0 0)
(0.0166857 0.000466507 0 0.00504458 0 0)
(0.0154658 0.000296166 0 0.00457066 0 0)
(0.0145449 0.000849559 0 0.00499627 0 0)
(0.0143512 0.00179601 0 0.0057434 0 0)
(0.0147205 0.00292462 0 0.00665938 0 0)
(0.0153832 0.00423577 0 0.00775405 0 0)
(0.0166022 0.00584329 0 0.00906429 0 0)
(0.0187549 0.00786437 0 0.010613 0 0)
(0.0220156 0.0103661 0 0.0123922 0 0)
(0.0264519 0.013392 0 0.0143881 0 0)
(0.0321188 0.0169509 0 0.0165651 0 0)
(0.0391009 0.0210598 0 0.0189153 0 0)
(0.0473991 0.0256664 0 0.021378 0 0)
(0.0570803 0.0307591 0 0.0239981 0 0)
(0.0681001 0.0362225 0 0.0266645 0 0)
(0.0804972 0.0420853 0 0.0294457 0 0)
(0.0538361 0.00284163 0 0.00830108 0 0)
(0.0263884 0.00225344 0 0.00625621 0 0)
(0.0184034 0.00118226 0 0.00445236 0 0)
(0.0157892 0.0010069 0 0.00384788 0 0)
(0.0140364 0.0015669 0 0.0037951 0 0)
(0.0139298 0.00249077 0 0.00401677 0 0)
(0.015152 0.00356936 0 0.00444208 0 0)
(0.0170855 0.00478951 0 0.00503635 0 0)
(0.0196473 0.00622634 0 0.0057767 0 0)
(0.0229729 0.00795673 0 0.00666633 0 0)
(0.0271272 0.0100253 0 0.0077095 0 0)
(0.032189 0.0124635 0 0.0089005 0 0)
(0.0383214 0.015286 0 0.0102131 0 0)
(0.0457363 0.0185228 0 0.0116416 0 0)
(0.0545437 0.0221597 0 0.0131479 0 0)
(0.0648365 0.0262007 0 0.0147554 0 0)
(0.076577 0.0305602 0 0.0163878 0 0)
(0.0896981 0.0352449 0 0.0180859 0 0)
(0.0490569 0.000366594 0 0.00773881 0 0)
(0.0199117 0.000916371 0 0.00567998 0 0)
(0.0129483 0.000765807 0 0.00385026 0 0)
(0.0118094 0.000775785 0 0.00321708 0 0)
(0.0108739 0.00114554 0 0.00321969 0 0)
(0.0108563 0.00182795 0 0.00344883 0 0)
(0.0117742 0.00266359 0 0.00376063 0 0)
(0.0133057 0.00360324 0 0.00413102 0 0)
(0.0155659 0.00472173 0 0.0045846 0 0)
(0.0187799 0.00610437 0 0.00513982 0 0)
(0.0229877 0.00778277 0 0.00579545 0 0)
(0.0281711 0.00976205 0 0.00654657 0 0)
(0.0343823 0.0120302 0 0.00738042 0 0)
(0.0417568 0.0146002 0 0.00829328 0 0)
(0.0503838 0.0174554 0 0.00925357 0 0)
(0.060391 0.0206182 0 0.0102834 0 0)
(0.0717587 0.0240338 0 0.0113385 0 0)
(0.0845415 0.0277155 0 0.0124232 0 0)
(0.0500396 0.000726146 0 0.00704793 0 0)
(0.0217839 0.000801767 0 0.00478186 0 0)
(0.0147433 0.000285429 0 0.00326366 0 0)
(0.013457 2.13006e-05 0 0.00263932 0 0)
(0.0124589 8.31566e-05 0 0.00247038 0 0)
(0.0123595 0.000382357 0 0.00250808 0 0)
(0.0130661 0.000794987 0 0.00262758 0 0)
(0.0142199 0.00132605 0 0.00279113 0 0)
(0.0159657 0.00204907 0 0.00299975 0 0)
(0.0185684 0.00300484 0 0.00326624 0 0)
(0.0220936 0.00418984 0 0.00359727 0 0)
(0.0265433 0.00559613 0 0.0039924 0 0)
(0.0320013 0.0072206 0 0.00444208 0 0)
(0.0386436 0.00907275 0 0.00494059 0 0)
(0.0465959 0.011142 0 0.00546946 0 0)
(0.0560049 0.0134371 0 0.00604496 0 0)
(0.0668775 0.0159145 0 0.00663343 0 0)
(0.0791792 0.0185857 0 0.00723934 0 0)
(0.0539165 -0.000976718 0 0.00583414 0 0)
(0.0249134 -0.00101445 0 0.00419687 0 0)
(0.0182967 -0.000503461 0 0.00299007 0 0)
(0.0172519 -0.000289247 0 0.00247421 0 0)
(0.0162982 -0.00021826 0 0.00234065 0 0)
(0.0162975 -3.26011e-05 0 0.00234328 0 0)
(0.0173585 0.000326151 0 0.00237427 0 0)
(0.0190124 0.000854402 0 0.002416 0 0)
(0.0212418 0.00154862 0 0.00248366 0 0)
(0.0243122 0.00240039 0 0.00258973 0 0)
(0.0284308 0.00339435 0 0.0027349 0 0)
(0.0337323 0.00451825 0 0.00291704 0 0)
(0.0403294 0.00576564 0 0.00313327 0 0)
(0.0482918 0.00714206 0 0.00338074 0 0)
(0.0576045 0.00864908 0 0.00364935 0 0)
(0.068269 0.0103012 0 0.00395746 0 0)
(0.0802538 0.012083 0 0.00427982 0 0)
(0.0934469 0.0140215 0 0.00461093 0 0)
(0.0531307 0.00039501 0 0.00494088 0 0)
(0.0242051 -0.000212053 0 0.00296404 0 0)
(0.0171174 0.000114469 0 0.00206313 0 0)
(0.0161239 0.000226411 0 0.00170861 0 0)
(0.0150996 0.000220546 0 0.00156015 0 0)
(0.0148056 0.000227979 0 0.00149125 0 0)
(0.0156784 0.000347216 0 0.00144614 0 0)
(0.0175272 0.000647176 0 0.00141309 0 0)
(0.0203576 0.00111598 0 0.00139614 0 0)
(0.0242733 0.00169078 0 0.00140193 0 0)
(0.0292651 0.00232496 0 0.00143628 0 0)
(0.0352999 0.00301615 0 0.00150145 0 0)
(0.0424134 0.00378781 0 0.00159611 0 0)
(0.0506952 0.00466908 0 0.00171795 0 0)
(0.060179 0.0056728 0 0.00185833 0 0)
(0.0709542 0.00680349 0 0.00202381 0 0)
(0.0830355 0.00804943 0 0.0022031 0 0)
(0.0963633 0.00940952 0 0.00238423 0 0)
(0.055732 -0.000217137 0 0.00399018 0 0)
(0.0294995 -0.000986713 0 0.00260234 0 0)
(0.0210869 -0.00105503 0 0.00200044 0 0)
(0.0180763 -0.000897494 0 0.00169529 0 0)
(0.0169041 -0.000834542 0 0.00152803 0 0)
(0.0178227 -0.000874895 0 0.00142042 0 0)
(0.0198928 -0.000925167 0 0.00133498 0 0)
(0.0221798 -0.000884472 0 0.00126398 0 0)
(0.0247183 -0.000707423 0 0.00120796 0 0)
(0.0280586 -0.000408793 0 0.00116647 0 0)
(0.0326285 -2.02959e-05 0 0.00113785 0 0)
(0.0386135 0.000438362 0 0.00112125 0 0)
(0.0460096 0.000962203 0 0.00111759 0 0)
(0.0547872 0.00155006 0 0.00112685 0 0)
(0.0648051 0.00220202 0 0.00114656 0 0)
(0.0761759 0.00292106 0 0.00118112 0 0)
(0.0888524 0.00370966 0 0.0012239 0 0)
(0.102931 0.00456453 0 0.00127099 0 0)
(0.050813 0.000292557 0 0.00386529 0 0)
(0.0243165 0.000519884 0 0.00208894 0 0)
(0.0188477 0.000457809 0 0.00152456 0 0)
(0.0182563 0.000460055 0 0.00123625 0 0)
(0.016964 0.000364288 0 0.001062 0 0)
(0.0164887 0.000218097 0 0.000947861 0 0)
(0.0174885 0.000141834 0 0.000867862 0 0)
(0.0195847 0.000184866 0 0.000809504 0 0)
(0.0226443 0.000308273 0 0.000765245 0 0)
(0.0268053 0.000440621 0 0.000730707 0 0)
(0.0321878 0.000544907 0 0.000703838 0 0)
(0.0389132 0.000636044 0 0.000682762 0 0)
(0.0471373 0.000756424 0 0.000665552 0 0)
(0.0570386 0.00093814 0 0.000648745 0 0)
(0.0687506 0.00119423 0 0.000631253 0 0)
(0.082472 0.00150867 0 0.000621541 0 0)
(0.0982354 0.00186227 0 0.00060751 0 0)
(0.116086 0.0022231 0 0.000578453 0 0)
(0.0182478 -0.0118541 6.64622e-22 0.0173163 -5.20191e-22 2.23878e-37)
(0.10223 -0.023895 -1.43292e-21 0.0201089 1.51765e-23 2.20742e-37)
(0.254192 -0.0230237 0 0.0271194 0 0)
(0.431154 -0.00734306 0 0.0395199 0 0)
(0.518971 0.0156553 0 0.061657 0 0)
(0.570511 0.0113885 1.6695e-21 0.0905947 1.08311e-21 2.0793e-37)
(0.654403 -0.0268423 0 0.121828 0 0)
(0.826124 -0.0958297 0 0.140982 0 0)
(1.1268 -0.17761 0 0.144478 0 0)
(1.56761 -0.253549 0 0.134241 0 0)
(2.13383 -0.309604 2.33127e-21 0.116419 -8.92261e-22 1.92585e-37)
(2.78885 -0.338968 0 0.0966176 0 0)
(3.48731 -0.341003 0 0.0785631 0 0)
(4.18247 -0.319816 0 0.0641338 0 0)
(4.83819 -0.28151 0 0.053936 0 0)
(5.43098 -0.232376 3.68066e-21 0.0478682 2.95544e-22 1.78004e-37)
(5.94828 -0.177647 0 0.0455616 0 0)
(6.38411 -0.121224 0 0.0464009 0 0)
(6.73661 -0.0657184 0 0.050026 0 0)
(7.00261 -0.0115672 0 0.0557758 0 0)
(7.18311 0.039945 0 0.0637853 0 0)
(7.27106 0.0924779 0 0.0750374 0 0)
(7.2733 0.137299 0 0.0919615 0 0)
(7.16143 0.17451 -5.13314e-21 0.123464 1.39498e-21 1.56243e-37)
(7.0227 0.183414 6.72593e-21 0.157245 -1.28874e-21 1.53656e-37)
(6.81487 0.153757 -8.22655e-21 0.204507 9.69325e-22 1.51098e-37)
(6.72913 0.0799026 -9.64212e-21 0.290278 6.62375e-22 1.48569e-37)
(6.7452 -0.0908862 0 0.32303 0 0)
(6.99935 -0.225434 0 0.303188 0 0)
(7.39474 -0.326102 1.34504e-20 0.294302 1.93132e-23 1.41153e-37)
(7.91037 -0.401651 1.47555e-20 0.298188 -6.66915e-22 1.38738e-37)
(8.59934 -0.488475 0 0.281352 0 0)
(9.42981 -0.613983 0 0.285632 0 0)
(10.4656 -0.724934 1.95061e-20 0.281753 -7.97918e-22 1.31664e-37)
(11.6176 -0.791598 0 0.283452 0 0)
(12.8492 -0.815664 0 0.290352 0 0)
(14.1397 -0.835546 -2.41651e-20 0.305601 6.31643e-22 1.24857e-37)
(15.6078 -0.904429 0 0.332944 0 0)
(17.1998 -0.981802 -2.68909e-20 0.338135 5.7665e-22 1.20466e-37)
(18.8233 -0.978036 -5.64743e-20 0.284121 1.27193e-21 4.73253e-37)
(20.4061 -0.897948 0 0.223029 0 0)
(21.8496 -0.780688 0 0.182435 0 0)
(23.2171 -0.76637 0 0.165085 0 0)
(24.2105 -0.821906 0 0.170848 0 0)
(24.7567 -0.718405 0 0.186005 0 0)
(25.8435 -0.70457 -6.96319e-20 0.194914 9.54558e-22 4.23979e-37)
(26.0346 -0.762113 -7.10978e-20 0.245244 6.30405e-22 4.1616e-37)
(26.6099 -0.731016 -7.21532e-20 0.2478 4.78021e-22 4.08452e-37)
(26.4536 -0.0415595 0 0.182873 0 0)
(25.1732 0.108603 7.52718e-20 0.251994 -1.50733e-21 3.9336e-37)
(24.6728 -0.0560237 0 0.220151 0 0)
(24.4103 -0.180128 -7.77246e-20 0.187796 1.26737e-21 3.78704e-37)
(24.4387 -0.293104 -7.87002e-20 0.155879 1.15166e-21 3.7154e-37)
(25.1129 -0.447836 0 0.139427 0 0)
(25.8767 -0.602245 0 0.148733 0 0)
(26.7238 -0.411818 0 0.138963 0 0)
(26.6769 -0.189914 -8.25097e-20 0.163877 8.70879e-22 3.4394e-37)
(26.9359 -0.239378 0 0.124364 0 0)
(27.7458 -0.326453 0 0.0957677 0 0)
(28.8224 -0.395008 0 0.0703628 0 0)
(30.0615 -0.420965 0 0.0526276 0 0)
(31.3394 -0.420558 0 0.0399553 0 0)
(32.603 -0.400403 0 0.030965 0 0)
(33.7966 -0.368226 0 0.0243528 0 0)
(34.8879 -0.327684 0 0.0194325 0 0)
(35.8497 -0.282398 8.87316e-20 0.0156999 -2.64598e-22 2.87789e-37)
(36.6677 -0.234233 0 0.0128733 0 0)
(37.3333 -0.18491 0 0.0107405 0 0)
(37.843 -0.135518 -8.67241e-20 0.00916794 -2.4057e-23 2.70797e-37)
(38.1941 -0.0872468 -8.54268e-20 0.00805044 -1.09206e-22 2.65315e-37)
(38.3905 -0.0409615 0 0.00730666 0 0)
(38.4384 0.002595 8.19975e-20 0.00686725 2.55484e-22 2.54618e-37)
(38.3458 0.0428636 -7.99258e-20 0.00667439 -3.14765e-22 2.49401e-37)
(38.1223 0.0794119 0 0.00668014 0 0)
(37.7788 0.112012 7.52435e-20 0.00684306 4.02638e-22 2.39225e-37)
(37.3271 0.140602 0 0.00713048 0 0)
(36.779 0.165274 0 0.00751582 0 0)
(36.1462 0.186232 -6.74172e-20 0.00797815 -4.69481e-22 2.24591e-37)
(35.4397 0.203777 0 0.00849718 0 0)
(34.67 0.218291 6.20331e-20 0.00905051 4.84156e-22 2.15244e-37)
(33.846 0.230243 0 0.00961016 0 0)
(32.9752 0.240187 -5.67259e-20 0.0101429 -4.82491e-22 2.06213e-37)
(32.0629 0.248744 -5.41344e-20 0.0106125 -4.78483e-22 2.01814e-37)
(31.1119 0.256565 -5.15928e-20 0.0109847 -4.73745e-22 1.97491e-37)
(30.1226 0.264249 -9.82026e-20 0.011233 -9.38975e-22 7.72971e-37)
(29.0931 0.27225 9.331e-20 0.0113444 9.32865e-22 7.56275e-37)
(28.0198 0.280784 0 0.0113224 0 0)
(26.899 0.289753 0 0.0111872 0 0)
(25.7292 0.298708 0 0.0109728 0 0)
(24.5118 0.306838 7.43477e-20 0.0107209 9.35898e-22 6.9237e-37)
(23.2517 0.313023 6.9721e-20 0.0104691 9.36383e-22 6.77092e-37)
(21.9602 0.316054 -6.51604e-20 0.0102344 -9.31352e-22 6.62086e-37)
(20.6528 0.314943 0 0.0100044 0 0)
(19.3487 0.30921 5.63718e-20 0.00974392 8.95106e-22 6.32872e-37)
(18.0671 0.299053 5.22182e-20 0.0094125 8.62665e-22 6.18656e-37)
(16.8249 0.285257 4.82664e-20 0.0089835 8.22026e-22 6.04697e-37)
(15.6349 0.268957 0 0.00845515 0 0)
(14.5051 0.251376 0 0.0078497 0 0)
(13.4388 0.233648 0 0.00721365 0 0)
(12.4359 0.216649 3.47248e-20 0.00659804 6.1968e-22 5.51342e-37)
(11.494 0.200904 0 0.00603779 0 0)
(10.6092 0.186611 0 0.00554796 0 0)
(9.77702 0.173746 -2.69174e-20 0.00513054 -4.74167e-22 5.1383e-37)
(8.99317 0.162139 0 0.00477853 0 0)
(8.25384 0.151567 0 0.00448128 0 0)
(7.55593 0.1418 -2.09008e-20 0.00422715 -3.5536e-22 4.78361e-37)
(6.89719 0.132634 0 0.00400515 0 0)
(6.2761 0.123895 0 0.00380529 0 0)
(5.69184 0.115449 1.639e-20 0.00361924 2.64857e-22 4.4484e-37)
(5.14405 0.10719 1.51661e-20 0.00343985 2.40268e-22 4.34084e-37)
(4.63269 0.0990553 0 0.00326131 0 0)
(4.15781 0.0910163 -1.30669e-20 0.00307922 -1.97665e-22 4.13179e-37)
(3.71944 0.0830721 0 0.00289052 0 0)
(3.31741 0.0752576 1.13606e-20 0.00269403 1.61706e-22 3.9306e-37)
(2.95131 0.0676328 0 0.00249044 0 0)
(2.62034 0.0602841 9.97042e-21 0.002283 1.3039e-22 3.73703e-37)
(2.32336 0.0533132 9.37356e-21 0.00207692 1.16098e-22 3.64302e-37)
(2.05882 0.0468071 0 0.00187738 0 0)
(1.8248 0.0408244 0 0.00168841 0 0)
(1.61909 0.0354016 0 0.00151334 0 0)
(1.43929 0.0305421 0 0.00135428 0 0)
(1.28298 0.0262449 0 0.00121245 0 0)
(1.14765 0.0224865 0 0.00108776 0 0)
(1.0309 0.0192141 0 0.000978882 0 0)
(0.930462 0.0163853 6.20996e-21 0.000884248 2.61293e-23 2.95401e-37)
(0.844201 0.013962 -5.96166e-21 0.000802156 -1.80166e-23 2.87535e-37)
(0.770154 0.0119151 0 0.000730873 0 0)
(0.706384 0.010217 0 0.000668545 0 0)
(0.651164 0.00883351 0 0.000613703 0 0)
(0.602864 0.00773008 0 0.000565463 0 0)
(0.560014 0.00687006 -1.00586e-20 0.000523376 2.38478e-23 1.00204e-36)
(0.521346 0.00621282 0 0.000487297 0 0)
(0.485792 0.00571558 9.53217e-21 0.000457266 -4.0486e-23 9.46917e-37)
(0.452513 0.00533566 -9.3052e-21 0.00043332 4.74185e-23 9.20202e-37)
(0.420909 0.00503254 0 0.000415262 0 0)
(0.39062 0.00476977 0 0.000402529 0 0)
(0.361516 0.00451508 0 0.000394157 0 0)
(0.333664 0.00423767 8.60025e-21 0.000388834 -6.70864e-23 8.18762e-37)
(0.30731 0.00390806 8.47008e-21 0.000385078 -7.0944e-23 7.94714e-37)
(0.282838 0.00350551 0 0.000381462 0 0)
(0.260705 0.00302665 8.26536e-21 0.000376852 -7.84055e-23 7.48133e-37)
(0.241369 0.00248726 8.19045e-21 0.000370639 -8.17278e-23 7.25583e-37)
(0.225213 0.00191461 -8.13363e-21 0.000362808 8.49305e-23 7.03517e-37)
(0.212498 0.00133388 0 0.000353601 0 0)
(0.203355 0.000756767 0 0.000342832 0 0)
(0.197801 0.000180742 -8.06902e-21 0.000329411 9.34229e-23 6.40142e-37)
(0.195771 -0.000397408 0 0.00031191 0 0)
(0.197117 -0.00096035 0 0.000290585 0 0)
(0.201567 -0.00146327 0 0.000269841 0 0)
(0.208674 -0.00186195 0 0.000257207 0 0)
(0.217883 -0.00215617 8.2369e-21 0.000255142 -9.18155e-23 5.43477e-37)
(0.22871 -0.00239063 8.28688e-21 0.000255039 -8.70761e-23 5.25424e-37)
(0.240892 -0.00260427 0 0.000246517 0 0)
(0.254349 -0.00279896 8.3729e-21 0.000228786 -7.51246e-23 4.90543e-37)
(0.269047 -0.00295768 0 0.000206907 0 0)
(0.284913 -0.00306824 0 0.000185341 0 0)
(0.301819 -0.00313495 8.43273e-21 0.000167769 -5.72113e-23 4.41187e-37)
(0.319628 -0.00318082 0 0.000156138 0 0)
(0.338265 -0.00323199 8.42225e-21 0.000148864 -4.98173e-23 4.10188e-37)
(0.357743 -0.00329388 0 0.000142969 0 0)
(0.378073 -0.00334273 0 0.000136767 0 0)
(0.399205 -0.0033403 8.34938e-21 0.000128737 -4.01767e-23 3.66426e-37)
(0.420886 -0.00324919 0 0.000116031 0 0)
(0.44278 -0.00304594 8.25811e-21 9.686e-05 -3.07525e-23 3.39011e-37)