/*--------------------------------*- C++ -*----------------------------------*\
  =========                 |
  \\      /  F ield         | OpenFOAM: The Open Source CFD Toolbox
   \\    /   O peration     | Website:  https://openfoam.org
    \\  /    A nd           | Version:  6
     \\/     M anipulation  |
\*---------------------------------------------------------------------------*/
FoamFile
{
    version     2.0;
    format      ascii;
    class       volScalarField;
    location    "0.1";
    object      k;
}
// * * * * * * * * * * * * * * * * * * * * * * * * * * * * * * * * * * * * * //

dimensions      [0 2 -2 0 0 0 0];

internalField   nonuniform List<scalar> 
12225
(
5.41576e-05
5.63382e-05
3.63504e-05
2.53006e-05
2.62359e-05
4.4558e-05
0.000142966
0.000395767
0.000540541
0.000575172
0.000561275
0.000460906
0.000358307
0.000326071
0.00032469
0.000336955
0.000343877
0.000325984
2.10011e-05
2.1579e-05
2.10796e-05
2.06436e-05
2.10807e-05
2.4167e-05
3.61611e-05
7.42341e-05
0.000142292
0.000196485
0.00022147
0.000223562
0.000218835
0.0001995
0.000185525
0.000182658
0.000184929
0.000193838
2.0014e-05
1.05275e-05
9.21051e-06
9.67744e-06
1.13086e-05
1.26664e-05
1.46477e-05
1.7634e-05
2.22718e-05
2.92472e-05
3.75014e-05
4.43068e-05
4.78359e-05
4.8761e-05
4.89681e-05
4.92472e-05
4.99898e-05
5.2753e-05
2.02676e-05
2.01295e-05
1.95036e-05
1.74507e-05
1.56792e-05
1.44116e-05
1.37187e-05
1.36351e-05
1.45802e-05
1.80043e-05
2.08446e-05
2.24314e-05
2.31181e-05
2.32505e-05
2.3108e-05
2.30384e-05
2.31277e-05
2.36182e-05
2.06448e-05
2.08132e-05
2.07197e-05
2.08381e-05
2.16628e-05
2.21385e-05
2.22013e-05
2.22926e-05
2.24076e-05
2.25598e-05
2.27515e-05
2.29151e-05
2.30546e-05
2.32472e-05
2.36439e-05
2.46917e-05
2.77564e-05
3.85796e-05
2.06466e-05
2.14965e-05
2.18159e-05
2.20264e-05
2.20725e-05
2.19325e-05
2.18268e-05
2.18353e-05
2.19477e-05
2.2451e-05
2.31926e-05
2.36257e-05
2.39093e-05
2.42742e-05
2.4968e-05
2.65012e-05
3.08077e-05
4.51916e-05
2.24227e-05
2.95786e-05
3.00273e-05
2.57982e-05
2.31968e-05
2.2693e-05
2.28173e-05
2.43946e-05
2.69237e-05
2.78453e-05
2.78347e-05
2.68864e-05
2.54412e-05
2.48743e-05
2.48106e-05
2.51522e-05
2.67298e-05
3.12957e-05
2.13276e-05
2.5843e-05
2.72528e-05
2.56236e-05
2.37149e-05
2.41201e-05
2.86214e-05
5.82671e-05
0.000131491
0.000157821
0.000153754
0.000115418
6.62908e-05
4.1292e-05
3.00671e-05
2.55049e-05
2.388e-05
2.36734e-05
2.53641e-05
2.66479e-05
2.4657e-05
2.24064e-05
2.17592e-05
2.18742e-05
2.34036e-05
3.22926e-05
5.73558e-05
7.17473e-05
7.55323e-05
7.47102e-05
6.42633e-05
4.21441e-05
3.03967e-05
2.5143e-05
2.29466e-05
2.22656e-05
2.26178e-05
2.26997e-05
2.2698e-05
2.2675e-05
2.26918e-05
2.31252e-05
2.64663e-05
4.73341e-05
7.59808e-05
8.32406e-05
8.07048e-05
6.18566e-05
3.99426e-05
2.9463e-05
2.46299e-05
2.24597e-05
2.1553e-05
2.12532e-05
2.0316e-05
2.08565e-05
2.14476e-05
2.17966e-05
2.19782e-05
2.22749e-05
2.31942e-05
2.72277e-05
3.62055e-05
3.99252e-05
3.88697e-05
3.16212e-05
2.57303e-05
2.31315e-05
2.19832e-05
2.1506e-05
2.13478e-05
2.13186e-05
2.15774e-05
2.27406e-05
2.23131e-05
2.17005e-05
2.17029e-05
2.1884e-05
2.19338e-05
2.19992e-05
2.19459e-05
2.18288e-05
2.19772e-05
2.2502e-05
2.25346e-05
2.25035e-05
2.24544e-05
2.23078e-05
2.22061e-05
2.1976e-05
2.11832e-05
2.25119e-05
2.29246e-05
2.2965e-05
2.28715e-05
2.23752e-05
2.18159e-05
2.15703e-05
2.15455e-05
2.1732e-05
2.27897e-05
2.80647e-05
3.8208e-05
4.24454e-05
4.30713e-05
4.29084e-05
4.14622e-05
3.65775e-05
2.19102e-05
2.27659e-05
2.3854e-05
2.31323e-05
2.26215e-05
2.38309e-05
2.92957e-05
3.23374e-05
3.23147e-05
3.22104e-05
3.3102e-05
3.84501e-05
4.45683e-05
4.63396e-05
4.61068e-05
4.3888e-05
3.75476e-05
3.2735e-05
2.40674e-05
2.17955e-05
2.1033e-05
2.13201e-05
2.17719e-05
2.24784e-05
2.44526e-05
2.88902e-05
3.13589e-05
3.20184e-05
3.19991e-05
3.14854e-05
3.10416e-05
3.04445e-05
2.9276e-05
2.79888e-05
2.71363e-05
2.6464e-05
2.73802e-05
2.44521e-05
2.18657e-05
2.09442e-05
2.10489e-05
2.1296e-05
2.15324e-05
2.21293e-05
2.28971e-05
2.33041e-05
2.3344e-05
2.29994e-05
2.21047e-05
2.16065e-05
2.14126e-05
2.13814e-05
2.14327e-05
2.17892e-05
4.25712e-05
4.66002e-05
3.48972e-05
2.37338e-05
2.13879e-05
2.13106e-05
2.1778e-05
2.20095e-05
2.20359e-05
2.20104e-05
2.18095e-05
2.14547e-05
2.12883e-05
2.12552e-05
2.12793e-05
2.1442e-05
2.20757e-05
2.2525e-05
2.33713e-05
2.47061e-05
2.35711e-05
2.19155e-05
2.11132e-05
2.08867e-05
2.09013e-05
2.0994e-05
2.10259e-05
2.10355e-05
2.10519e-05
2.11119e-05
2.13664e-05
2.17063e-05
2.19431e-05
2.22054e-05
2.26767e-05
2.37587e-05
2.04846e-05
2.41936e-05
2.76566e-05
2.98754e-05
2.92233e-05
2.63297e-05
2.53782e-05
2.4966e-05
2.42413e-05
2.36329e-05
2.30112e-05
2.24201e-05
2.20223e-05
2.18589e-05
2.18409e-05
2.19093e-05
2.22978e-05
2.39633e-05
2.02879e-05
2.12977e-05
2.17161e-05
2.16941e-05
2.15083e-05
2.14878e-05
2.17232e-05
2.31762e-05
2.93313e-05
3.47977e-05
3.56655e-05
3.49751e-05
3.16384e-05
2.77865e-05
2.56684e-05
2.48255e-05
2.4693e-05
2.48956e-05
2.01461e-05
2.09984e-05
2.1314e-05
2.13431e-05
2.1346e-05
2.14211e-05
2.19652e-05
2.42331e-05
2.591e-05
2.61025e-05
2.57637e-05
2.42498e-05
2.28368e-05
2.21831e-05
2.2008e-05
2.20284e-05
2.22993e-05
2.34733e-05
2.01663e-05
2.07478e-05
2.08402e-05
2.07233e-05
2.06255e-05
2.06498e-05
2.08215e-05
2.13757e-05
2.20926e-05
2.27457e-05
2.30163e-05
2.28152e-05
2.25257e-05
2.24822e-05
2.25702e-05
2.3165e-05
2.50917e-05
2.65791e-05
2.00953e-05
2.00891e-05
2.01025e-05
2.02312e-05
2.08952e-05
2.30337e-05
2.447e-05
2.4837e-05
2.47595e-05
2.40375e-05
2.27734e-05
2.19098e-05
2.13416e-05
2.09767e-05
2.07663e-05
2.06748e-05
2.06555e-05
2.06724e-05
2.03605e-05
2.08307e-05
2.08368e-05
2.0348e-05
2.03529e-05
2.05398e-05
2.09959e-05
2.25076e-05
2.57786e-05
2.64675e-05
2.62179e-05
2.58606e-05
2.56246e-05
2.51404e-05
2.41789e-05
2.33625e-05
2.28739e-05
2.26962e-05
2.0637e-05
2.31526e-05
2.22558e-05
2.09807e-05
2.05487e-05
2.04536e-05
2.04921e-05
2.09356e-05
2.31114e-05
2.53082e-05
2.60226e-05
2.68986e-05
2.80943e-05
2.87158e-05
2.87712e-05
2.79917e-05
2.49984e-05
2.31148e-05
2.02266e-05
2.14192e-05
2.17044e-05
2.15996e-05
2.1114e-05
2.09807e-05
2.11707e-05
2.22039e-05
2.31594e-05
2.33662e-05
2.33704e-05
2.34253e-05
2.38629e-05
2.4551e-05
2.4891e-05
2.49645e-05
2.46034e-05
2.29463e-05
2.05958e-05
2.03071e-05
2.03046e-05
2.04021e-05
2.03894e-05
2.01109e-05
1.94432e-05
1.90172e-05
1.85888e-05
1.82474e-05
1.82002e-05
1.82548e-05
1.82084e-05
1.76841e-05
1.70656e-05
1.70846e-05
1.74918e-05
1.76573e-05
2.00027e-05
1.63745e-05
1.30896e-05
1.338e-05
1.38842e-05
1.35547e-05
1.13525e-05
9.70984e-06
9.55559e-06
1.0137e-05
1.32853e-05
2.34313e-05
3.26716e-05
3.90434e-05
4.41322e-05
4.83367e-05
5.11465e-05
5.18259e-05
2.00863e-05
2.00574e-05
1.99861e-05
1.99032e-05
1.9886e-05
1.99177e-05
2.02063e-05
2.15984e-05
2.71127e-05
4.69413e-05
0.000115866
0.000298565
0.000450669
0.000539328
0.000576719
0.000582929
0.00057738
0.000553065
3.16249e-05
2.8899e-05
2.18482e-05
1.95222e-05
1.90489e-05
1.92582e-05
2.13032e-05
3.16563e-05
7.50851e-05
0.000242651
0.000875657
0.00165669
0.00207859
0.00222329
0.00223223
0.00215291
0.0017476
0.00117246
0.0882278
0.108702
0.0997349
0.0776137
0.0620361
0.0538491
0.0502634
0.0492283
0.0497884
0.0515621
0.052454
0.0526426
0.052799
0.0533125
0.0546501
0.0570553
0.0603872
0.063167
0.0667435
0.0727163
0.0780715
0.0836701
0.0886433
0.0923863
0.0958755
0.0996131
0.112288
0.151764
0.192355
0.201262
0.198695
0.192486
0.184704
0.166929
0.143353
0.121994
0.110198
0.108782
0.110242
0.115255
0.125481
0.135923
0.140817
0.140286
0.131145
0.119273
0.112965
0.10232
0.0915512
0.0859139
0.0845754
0.0845876
0.0851176
0.0877459
0.0954303
0.10833
0.125466
0.144456
0.159987
0.182522
0.203875
0.298316
0.411567
0.251337
0.0593935
0.031768
0.0271437
0.0268822
0.026605
0.026237
0.0264159
0.0265001
0.0263361
0.0256833
0.0246427
0.0233059
0.0216066
0.019338
0.0166373
0.0140125
0.0125818
0.0121053
0.0119831
0.0119383
0.0119282
0.0119421
0.0120321
0.0121618
0.0123034
0.0125
0.0128139
0.0132739
0.0137811
0.0141728
0.0143831
0.0146927
0.0152779
0.0159227
0.0170747
0.0194661
0.0219039
0.0229121
0.0216938
0.0274994
0.0488536
0.0452016
0.0358617
0.430055
0.576195
0.216019
0.129266
0.102267
0.0842095
0.0729366
0.0676626
0.0654658
0.0650762
0.0651769
0.0651574
0.0649732
0.0646141
0.0641794
0.0636601
0.0631233
0.0625754
0.0619752
0.0613173
0.0606616
0.059952
0.059286
0.0586771
0.0580801
0.0576317
0.0574669
0.0573096
0.0571939
0.0570383
0.0568856
0.0564803
0.0559679
0.0563324
0.0568579
0.0569523
0.0566697
0.0556051
0.054253
0.0527608
0.0514656
0.0505565
0.0499533
0.0494234
0.048831
0.0482241
0.0474029
0.046444
0.0456246
0.0445927
0.0425364
0.0376915
0.0278807
0.0173634
0.010552
0.00840535
0.00841589
0.00967468
0.0231389
0.0623386
0.029654
0.00688507
0.00883331
0.00728349
0.00763347
0.00792106
0.00756116
0.00732939
0.00714813
0.00705986
0.00680325
0.00657314
0.00556814
0.0785542
0.0802663
0.0777184
0.0602065
0.042385
0.0346821
0.0261589
0.0221012
0.0208047
0.0206369
0.0206542
0.0207761
0.0213595
0.0222632
0.0231539
0.0243201
0.0250337
0.0261591
0.0276903
0.0286831
0.030932
0.0336871
0.0401239
0.0453549
0.0548822
0.0663664
0.0747983
0.0829902
0.0985573
0.10899
0.108741
0.101517
0.0806148
0.0667467
0.0582939
0.0563985
0.0575092
0.0654689
0.0800408
0.0882009
0.090718
0.0900048
0.0864458
0.078475
0.0641332
0.0523942
0.0479386
0.0478702
0.0495393
0.0561626
0.0657701
0.0742633
0.0833892
0.0900943
0.0953512
0.102977
0.113902
0.132249
0.19977
0.334732
0.338603
0.294563
0.169982
0.069087
0.0269551
0.0176735
0.0146396
0.0130433
0.0116729
0.0110861
0.0103844
0.00970007
0.0090818
0.00847711
0.00814562
0.00773986
0.00733449
0.00693342
0.00655716
0.00625411
0.00598864
0.00571238
0.00544591
0.00523902
0.00508384
0.00502551
0.00501008
0.00505008
0.00523195
0.00551794
0.00589113
0.00644583
0.0072623
0.00852347
0.0104744
0.013336
0.0178255
0.0252947
0.0372463
0.0522466
0.0609473
0.0603815
0.0537632
0.0427184
0.0375687
0.0836299
0.338671
0.401674
0.313523
0.110482
0.0897446
0.0850598
0.0833481
0.0826341
0.0816912
0.0803
0.0795015
0.0778288
0.0759726
0.0744264
0.0728217
0.0709711
0.0691247
0.0675044
0.065833
0.0643931
0.0632416
0.0619521
0.0602248
0.0582567
0.0558853
0.0531349
0.0509949
0.0497838
0.0495598
0.0497249
0.0508056
0.0528412
0.0548692
0.0562332
0.0573061
0.058082
0.0586357
0.0590083
0.0591771
0.0591342
0.0586306
0.057655
0.0566227
0.0558146
0.0547927
0.0539588
0.0538839
0.0540257
0.0543698
0.0551126
0.0558991
0.0565411
0.0567637
0.0564863
0.0551384
0.0510564
0.0397054
0.0254698
0.0156081
0.015738
0.033779
0.0337788
0.0280338
0.0226856
0.0119079
0.0113123
0.0129123
0.012151
0.0114173
0.0109748
0.0104998
0.00991757
0.00975882
0.00927981
0.058506
0.048089
0.0649882
0.0622433
0.0543529
0.0403629
0.0269129
0.0191216
0.0164333
0.0159294
0.0160549
0.0167534
0.018576
0.0203933
0.021675
0.0224652
0.0226432
0.0226364
0.022534
0.022616
0.0232389
0.0241829
0.026104
0.0278979
0.0300323
0.0353022
0.0391821
0.042897
0.0512976
0.0572529
0.0676794
0.0894131
0.0984537
0.0952415
0.0768451
0.0604982
0.0602441
0.0746749
0.0823719
0.0776071
0.0592281
0.041033
0.0288809
0.0258074
0.026316
0.0295611
0.0387304
0.0578917
0.0715952
0.0816384
0.0842412
0.0855363
0.0890649
0.0988677
0.106087
0.111329
0.122219
0.163357
0.298467
0.301686
0.183
0.103109
0.0368723
0.0161259
0.00891924
0.00646933
0.00531004
0.0043294
0.00384629
0.00358191
0.0032403
0.00293884
0.00263334
0.00246475
0.0023582
0.00222759
0.00210404
0.00199952
0.00191004
0.00186571
0.00184766
0.00185086
0.00193098
0.00202185
0.00214038
0.00228531
0.00246536
0.00269557
0.00298301
0.00334867
0.00384821
0.00457711
0.00571241
0.00760399
0.0110277
0.017424
0.0294509
0.0508229
0.0850239
0.109626
0.114075
0.107332
0.085861
0.0647257
0.0772922
0.236269
0.311356
0.288428
0.125416
0.0908388
0.087949
0.0870847
0.0865425
0.085673
0.0847585
0.0843662
0.0836185
0.0816566
0.0799096
0.0779798
0.0758595
0.0732177
0.0706583
0.0684954
0.0662451
0.064399
0.0632749
0.0625217
0.0611451
0.0590354
0.0555999
0.0508357
0.0458984
0.0400063
0.0354821
0.0323192
0.0296859
0.0277795
0.0265448
0.0259042
0.0257736
0.0260314
0.0270256
0.0284501
0.0300115
0.0312169
0.0316075
0.0314618
0.0315207
0.0320663
0.0335994
0.0373124
0.0410626
0.0434243
0.0451764
0.0469172
0.0487446
0.0503303
0.0512037
0.0513823
0.0508678
0.0476833
0.0367601
0.0244601
0.0143832
0.00933902
0.0107887
0.0197169
0.0234656
0.0222062
0.0185421
0.0167174
0.0168584
0.0178796
0.0182645
0.0184975
0.0176951
0.0149869
0.013021
0.0114996
0.0484808
0.0320448
0.0484221
0.0550741
0.0517939
0.0407266
0.0251472
0.0174975
0.015015
0.0148355
0.0152525
0.0163988
0.0190595
0.0218308
0.0237615
0.0253436
0.0262544
0.0269363
0.027619
0.0278264
0.0284753
0.0292803
0.0310291
0.0334326
0.0352387
0.0378171
0.0407267
0.0429138
0.0432418
0.0429324
0.0439303
0.0504212
0.0727734
0.087667
0.0879124
0.0831267
0.0839673
0.0835266
0.0697562
0.0466598
0.0292787
0.0208861
0.0203019
0.0232057
0.0358305
0.0542866
0.0663583
0.0766479
0.0865263
0.0950794
0.0979792
0.101544
0.105649
0.114145
0.118567
0.122546
0.132848
0.231503
0.273072
0.150228
0.0612747
0.0275633
0.0111016
0.00558962
0.0036286
0.0027904
0.00227762
0.00196143
0.00178239
0.00168005
0.00155555
0.00147342
0.00142307
0.00140648
0.00140228
0.00141269
0.00145192
0.00150626
0.00159286
0.00172302
0.00189895
0.00212596
0.00241533
0.00271397
0.00300442
0.0032699
0.00350547
0.00372306
0.00391938
0.0040997
0.00436336
0.00483894
0.00576564
0.00753434
0.0111224
0.0185726
0.0334629
0.0620543
0.108574
0.137946
0.14198
0.140599
0.142884
0.156941
0.201116
0.247322
0.250622
0.137656
0.0984541
0.0933212
0.0947722
0.09856
0.0998301
0.100586
0.101048
0.101205
0.100934
0.100087
0.0986581
0.0974137
0.0952084
0.0918089
0.0877635
0.0832545
0.0785658
0.0748413
0.0722691
0.0711918
0.0705151
0.0691893
0.0642799
0.0557469
0.0468337
0.0392462
0.0317871
0.0266616
0.0232135
0.0199736
0.0171164
0.0146833
0.0127261
0.011549
0.0111741
0.0111682
0.0112789
0.0115158
0.0120311
0.0133682
0.016674
0.0219246
0.028175
0.0354608
0.0433001
0.049346
0.0527355
0.0551673
0.0553171
0.0545605
0.0530183
0.0529848
0.0537262
0.0534255
0.0497934
0.0362509
0.0207462
0.0117173
0.00825864
0.00878968
0.0110613
0.0165204
0.0167804
0.016353
0.0164008
0.0169303
0.0182095
0.0215154
0.0230925
0.0228736
0.0198845
0.0153821
0.0486686
0.0309298
0.051554
0.0556376
0.0466171
0.0255609
0.0172837
0.0148719
0.014415
0.0145435
0.0153552
0.0175488
0.0202078
0.0226597
0.0244371
0.0262475
0.0274347
0.0279123
0.0289041
0.0295838
0.0298953
0.0295593
0.0283198
0.0281408
0.0291926
0.0321133
0.0389168
0.044744
0.047089
0.047082
0.0457308
0.0456096
0.052498
0.0759661
0.0857535
0.0860993
0.0864841
0.0794532
0.0562468
0.0330237
0.0200029
0.0180048
0.0208046
0.0360065
0.0531514
0.0604885
0.0693411
0.0763983
0.090952
0.107413
0.123066
0.146924
0.148187
0.145112
0.141519
0.137408
0.162019
0.232686
0.194128
0.0607824
0.0238206
0.0106166
0.00497645
0.00278707
0.00190495
0.00152985
0.00135845
0.00128327
0.00125859
0.00125885
0.00131609
0.00136346
0.00141255
0.00148226
0.0016232
0.00184405
0.00218893
0.00268615
0.00337337
0.00424944
0.00525883
0.00632388
0.00735691
0.00835138
0.0091528
0.00967737
0.00988832
0.00993223
0.00976341
0.0092275
0.00852702
0.00785126
0.00757905
0.00788158
0.0103649
0.0160302
0.0316919
0.0642538
0.115946
0.160071
0.171728
0.171933
0.177073
0.203721
0.217244
0.222034
0.143542
0.107225
0.0997843
0.100165
0.105323
0.106706
0.107187
0.107288
0.106744
0.106317
0.106211
0.106069
0.105794
0.105561
0.105298
0.104761
0.103785
0.101926
0.0982169
0.0910761
0.0835205
0.079407
0.0771936
0.0752593
0.0713001
0.0635954
0.0515863
0.0406659
0.0311959
0.0233087
0.0178832
0.0147213
0.0123316
0.0102222
0.00844537
0.00745209
0.00716707
0.00718061
0.00736383
0.00791822
0.00929217
0.0121711
0.0194118
0.0343187
0.0471237
0.0575575
0.0696839
0.0840352
0.0954471
0.0994356
0.0995485
0.0968877
0.0827142
0.0639178
0.0576173
0.0578864
0.0582393
0.0561414
0.0474029
0.026604
0.0137362
0.00921378
0.00792029
0.00835194
0.00951513
0.0115205
0.0135781
0.0146352
0.0163445
0.0188382
0.0219633
0.0243185
0.0246536
0.022334
0.0505435
0.0431574
0.0608104
0.046839
0.0257671
0.0185108
0.0158122
0.0151581
0.0152756
0.0158335
0.0176249
0.0203614
0.0222804
0.0243259
0.0260822
0.0277662
0.0295
0.0302756
0.0305035
0.0310811
0.0313767
0.0315435
0.0320725
0.0319496
0.0319443
0.0326536
0.0357363
0.0442011
0.050571
0.0520663
0.0511119
0.0504039
0.0546606
0.0740805
0.0841477
0.0855691
0.0837028
0.0724705
0.0466664
0.0240429
0.0169403
0.0181294
0.0311588
0.0456819
0.0507623
0.0568158
0.0672244
0.0889348
0.134071
0.195396
0.251405
0.26122
0.252761
0.229729
0.195366
0.166251
0.19507
0.215906
0.0925209
0.027169
0.010911
0.0053534
0.00289328
0.00176054
0.0013012
0.00116431
0.00113347
0.00113372
0.0011897
0.00127296
0.00139154
0.00156113
0.00181706
0.00225509
0.00295025
0.0040108
0.0056057
0.00791162
0.0106802
0.0134107
0.0159714
0.0182192
0.0201074
0.0216478
0.0229042
0.0239931
0.024619
0.0248841
0.024866
0.0239341
0.0221788
0.0192072
0.0154802
0.01298
0.0121568
0.0137806
0.0230501
0.0507527
0.109985
0.168752
0.190822
0.199226
0.202232
0.204279
0.203599
0.160487
0.115973
0.104225
0.102802
0.108222
0.110219
0.110895
0.111063
0.110765
0.109108
0.107204
0.106365
0.105912
0.105705
0.105663
0.105757
0.10588
0.106043
0.106108
0.105537
0.103499
0.0974054
0.0863088
0.0807754
0.0779662
0.0742742
0.0668311
0.055821
0.0433818
0.0321656
0.02276
0.0157642
0.0109002
0.00770943
0.00595497
0.00528273
0.00504875
0.00503635
0.00509807
0.00541188
0.00660426
0.00969654
0.0181884
0.0402581
0.0592645
0.0711976
0.078218
0.0845648
0.09719
0.126158
0.156704
0.174633
0.178048
0.172346
0.135262
0.0842209
0.0668412
0.0651086
0.065006
0.0633808
0.0569561
0.0363874
0.0167597
0.00984313
0.0074723
0.0062768
0.00633882
0.00690144
0.00813214
0.0110723
0.0145114
0.0184829
0.0226245
0.0258549
0.0258725
0.0441179
0.0525944
0.0406668
0.02606
0.0205585
0.0182859
0.0186175
0.0193853
0.0206624
0.0226346
0.0253474
0.0277943
0.0294644
0.0311915
0.0328658
0.033952
0.0355034
0.0368098
0.0369659
0.0367664
0.036289
0.0361228
0.0361738
0.0363899
0.0369381
0.0382043
0.041764
0.0495742
0.0553494
0.0569505
0.0562407
0.0554075
0.0598883
0.0775723
0.084767
0.0848417
0.0800973
0.0638908
0.0325326
0.0170096
0.0158476
0.0231038
0.0395311
0.0444911
0.0486071
0.0594601
0.0891283
0.165421
0.251464
0.300993
0.328857
0.328792
0.313902
0.263184
0.207285
0.18664
0.194343
0.16997
0.043762
0.0129772
0.00561598
0.00311702
0.00194196
0.00133152
0.00113432
0.00110285
0.00110784
0.00115573
0.00126836
0.00146542
0.00179694
0.00234161
0.00324753
0.0048137
0.00731988
0.0100545
0.0129945
0.015889
0.0182552
0.0203362
0.0220735
0.0236087
0.0249323
0.0260565
0.0272936
0.0285124
0.029612
0.0305903
0.0316705
0.0326042
0.0333424
0.0338599
0.0326228
0.0285883
0.0213544
0.0181654
0.0185923
0.0319651
0.0744406
0.15348
0.189275
0.200375
0.202676
0.197857
0.170011
0.127315
0.110131
0.106093
0.108279
0.112614
0.113897
0.114564
0.115035
0.115155
0.11456
0.112392
0.109371
0.10627
0.104769
0.103854
0.103515
0.103456
0.104035
0.105075
0.105711
0.105512
0.102834
0.0954689
0.0846789
0.0803795
0.0757486
0.0679905
0.0571614
0.0441237
0.0324174
0.0224523
0.0149149
0.00963417
0.00612792
0.00398305
0.00295134
0.00264953
0.00264036
0.0028201
0.00368817
0.0061775
0.0135125
0.0343009
0.0528858
0.0653066
0.0737307
0.0810297
0.0899257
0.105141
0.138521
0.181603
0.223503
0.250571
0.254943
0.243955
0.174626
0.0987487
0.0757523
0.0726976
0.0722255
0.0707031
0.0642478
0.040373
0.0186764
0.0100617
0.00698042
0.00527081
0.004523
0.00458909
0.00512134
0.00655835
0.0104072
0.0177993
0.0240923
0.0270549
0.031944
0.0399894
0.0324929
0.0254406
0.0240803
0.0252093
0.0284339
0.0318044
0.0362797
0.0393337
0.0417303
0.0435527
0.0447265
0.0454353
0.0464066
0.0468108
0.047496
0.0477576
0.0475666
0.0470187
0.0459732
0.0441287
0.0420262
0.0414522
0.0415827
0.0422512
0.0451979
0.0539413
0.059748
0.0607136
0.0591151
0.058617
0.068542
0.08263
0.0857199
0.0835878
0.073787
0.0433813
0.0187977
0.0132022
0.0159772
0.029835
0.0387777
0.0401227
0.0475104
0.0783195
0.169113
0.263534
0.316009
0.346294
0.35617
0.347933
0.31581
0.258382
0.205275
0.186954
0.17983
0.0849214
0.0205971
0.0066259
0.0032783
0.00210796
0.00152844
0.00121335
0.00113009
0.00111915
0.00117146
0.00131746
0.00159667
0.0020764
0.00288905
0.00428416
0.0067454
0.00945117
0.0114183
0.0137798
0.0161002
0.0178403
0.0194533
0.0208195
0.0222175
0.0233054
0.0241435
0.0248341
0.0255301
0.0262915
0.027127
0.0279615
0.0292696
0.0308624
0.0328324
0.0355851
0.0371899
0.0378483
0.0375869
0.0319374
0.0243132
0.0230569
0.0402547
0.0994573
0.163259
0.184942
0.190733
0.180419
0.13931
0.11528
0.107496
0.106256
0.110106
0.114926
0.11638
0.117788
0.118734
0.11912
0.119267
0.118996
0.117035
0.113091
0.107134
0.103355
0.101766
0.101219
0.101073
0.101566
0.103053
0.103938
0.103522
0.0987905
0.0884097
0.0818996
0.0763143
0.0681348
0.0572561
0.0435216
0.0306095
0.020365
0.0129489
0.00812135
0.00504347
0.00307084
0.00194554
0.00160458
0.00162289
0.00195955
0.00330291
0.00781772
0.0235462
0.0421116
0.0556742
0.0629391
0.0693543
0.0791729
0.0999131
0.137399
0.187471
0.227894
0.255981
0.280828
0.297083
0.297807
0.278675
0.17842
0.102003
0.0826131
0.079645
0.0784975
0.076038
0.0672839
0.0398744
0.0188357
0.0103039
0.00637611
0.00456114
0.00345961
0.00330537
0.00349957
0.00454766
0.00798651
0.0181058
0.0251686
0.0248361
0.038695
0.0343529
0.0329499
0.0347722
0.0403106
0.0497532
0.0584559
0.0647048
0.0689429
0.0710925
0.0716724
0.0720191
0.0716518
0.0708861
0.070132
0.069266
0.0680323
0.0664804
0.0640682
0.0609589
0.0575068
0.053413
0.0485097
0.0460126
0.0460937
0.0489357
0.0586552
0.0636836
0.0633934
0.060295
0.0641761
0.0809563
0.0861063
0.0850829
0.0782056
0.0528622
0.0225203
0.0116122
0.0117864
0.0198378
0.031177
0.0323036
0.0366155
0.0591586
0.148497
0.253162
0.311798
0.34508
0.359481
0.358973
0.343401
0.304807
0.243145
0.198143
0.177774
0.132892
0.037988
0.00997362
0.00383366
0.00231142
0.00174802
0.00144151
0.00123348
0.00118936
0.00125363
0.0014594
0.00185326
0.00250591
0.00356529
0.00527339
0.00792503
0.00962017
0.0113519
0.0136534
0.0158838
0.0178135
0.0193195
0.0206729
0.0219091
0.0229577
0.0236676
0.0243643
0.0249223
0.0252817
0.0255661
0.0257967
0.0259188
0.0260525
0.0261493
0.0264361
0.0274904
0.0306907
0.0358325
0.039963
0.0412809
0.0399225
0.0287388
0.0252917
0.0446728
0.115648
0.151641
0.158217
0.154941
0.124509
0.109996
0.105538
0.105111
0.109202
0.114589
0.116322
0.117742
0.11915
0.12018
0.120713
0.120705
0.119578
0.116886
0.112666
0.105461
0.100878
0.0993839
0.0993245
0.0999707
0.100967
0.101375
0.101628
0.0993045
0.0901866
0.0824193
0.075535
0.0661938
0.0541685
0.0402632
0.0273337
0.0173792
0.0104308
0.0060519
0.00343281
0.00191629
0.0012429
0.00109024
0.00115618
0.00170194
0.00392085
0.0130472
0.0297425
0.0443956
0.0483924
0.053508
0.0644291
0.0874978
0.142108
0.205027
0.245243
0.269473
0.279323
0.289389
0.306636
0.31628
0.313624
0.276252
0.155856
0.101037
0.0876561
0.0843799
0.0823322
0.0781042
0.0665781
0.038035
0.0192921
0.0105289
0.00609167
0.00396117
0.00278454
0.00246296
0.00259235
0.00358754
0.00782934
0.0195502
0.014351
0.0432317
0.0437803
0.0466759
0.0552312
0.073321
0.0892715
0.101522
0.109065
0.112843
0.114309
0.114645
0.113953
0.112918
0.111271
0.108668
0.105347
0.101072
0.0955541
0.0890551
0.0820755
0.074462
0.0656627
0.0576248
0.0523173
0.0516739
0.055584
0.0654327
0.0672648
0.0635135
0.0643427
0.0820291
0.086951
0.0854671
0.0781032
0.059089
0.0265733
0.0111868
0.00891546
0.0123268
0.0229408
0.0261874
0.0271113
0.0385982
0.0937202
0.221144
0.290382
0.33061
0.353397
0.35846
0.351981
0.325526
0.276982
0.220197
0.179558
0.146752
0.0597032
0.0171042
0.00537939
0.00271242
0.00201078
0.00173025
0.00148277
0.00137747
0.00146007
0.00178164
0.00242003
0.00351653
0.00538702
0.00762599
0.009688
0.010879
0.0129207
0.0160513
0.0189043
0.0210059
0.0226993
0.0241562
0.025216
0.0260446
0.0265506
0.0271508
0.0275747
0.0279908
0.0283808
0.0286738
0.0287548
0.028776
0.0285298
0.0279758
0.0269221
0.0255948
0.0249263
0.0251585
0.0285602
0.0378193
0.0441432
0.0451304
0.0351613
0.0254352
0.0427513
0.105749
0.137402
0.13974
0.120243
0.102254
0.099295
0.0998854
0.105296
0.112289
0.114981
0.116516
0.117958
0.118956
0.119471
0.119459
0.118875
0.117223
0.113672
0.106517
0.100264
0.0969254
0.0963601
0.0971221
0.0993415
0.100192
0.0997715
0.0979087
0.0906
0.0807542
0.073327
0.0652028
0.0521452
0.0376675
0.0245286
0.0147546
0.0084946
0.00469311
0.00248
0.00129578
0.0008223
0.000751016
0.000869229
0.0016755
0.00531161
0.0170838
0.0297046
0.0328775
0.038133
0.0488747
0.0726087
0.13599
0.202117
0.241059
0.262182
0.275902
0.282046
0.284843
0.291441
0.313262
0.321786
0.313244
0.236846
0.13422
0.0996734
0.089858
0.0864202
0.0834992
0.0776886
0.0643008
0.0385652
0.020666
0.0110914
0.00603014
0.00347279
0.00226235
0.00192241
0.00208215
0.00343942
0.0096134
0.00953969
0.0518061
0.0587962
0.0721631
0.101023
0.128053
0.145197
0.154808
0.160083
0.163265
0.165712
0.167075
0.167317
0.165637
0.161863
0.155369
0.14665
0.136558
0.126606
0.115245
0.104091
0.0891457
0.0706229
0.0580757
0.0550508
0.0575419
0.0668403
0.0697765
0.0670691
0.0684295
0.0844432
0.0887418
0.0833961
0.0746927
0.0612613
0.0309339
0.0118767
0.00695064
0.0079635
0.0139928
0.0197746
0.0203703
0.0235411
0.0475165
0.12898
0.250236
0.302874
0.332316
0.345448
0.347059
0.326849
0.279774
0.219697
0.169442
0.137987
0.0772873
0.0264882
0.00839229
0.00354988
0.0023703
0.00200994
0.00182132
0.00173478
0.0018855
0.00240682
0.00348219
0.00549017
0.00782311
0.00984192
0.011535
0.0131224
0.0157784
0.0195965
0.0220583
0.0237986
0.02511
0.0257554
0.0263527
0.0267793
0.0272205
0.0276877
0.0280958
0.028427
0.028704
0.0291094
0.0297977
0.030191
0.0306009
0.0311193
0.0318547
0.0325699
0.032644
0.0302122
0.0256766
0.0230478
0.0232819
0.0309289
0.04504
0.0499936
0.0421104
0.0290256
0.0401564
0.0846368
0.120603
0.116374
0.10174
0.0948834
0.0918862
0.0937894
0.100437
0.108409
0.111973
0.113974
0.115176
0.115596
0.115101
0.113825
0.111131
0.10751
0.101447
0.096657
0.0941151
0.0936166
0.0943199
0.0964872
0.0979216
0.097995
0.0963476
0.0880953
0.0767333
0.0711874
0.061553
0.0477218
0.0333053
0.0206626
0.0114803
0.00581014
0.00291848
0.0014623
0.000762253
0.000517484
0.000506408
0.000679803
0.00170781
0.00646687
0.0159333
0.019844
0.0253138
0.0348155
0.0567726
0.118971
0.18948
0.228941
0.249826
0.262984
0.263525
0.260042
0.255228
0.256743
0.267227
0.304007
0.311902
0.289768
0.18527
0.118897
0.0972487
0.0895118
0.0859273
0.0825547
0.0763436
0.063565
0.0406919
0.0226174
0.0115331
0.00575226
0.00298198
0.00184011
0.00160123
0.00191026
0.00437119
0.0196337
0.0809377
0.0834861
0.118678
0.159735
0.17815
0.188449
0.194944
0.199682
0.203295
0.205435
0.205688
0.204043
0.199204
0.191247
0.181161
0.170242
0.157437
0.141112
0.121232
0.0995033
0.0768078
0.0647474
0.0617357
0.0640661
0.0703278
0.0713505
0.0710967
0.0760325
0.0881432
0.0895441
0.0777986
0.0694915
0.0587656
0.0354739
0.012966
0.00611763
0.00561805
0.00791716
0.0135894
0.0147643
0.0152134
0.0206401
0.0513158
0.142089
0.259359
0.297457
0.312017
0.317942
0.308672
0.262479
0.208528
0.164191
0.134991
0.0975448
0.0371675
0.0131185
0.00512957
0.00298225
0.00238951
0.002181
0.00221715
0.00259102
0.00355913
0.005563
0.00790322
0.00998397
0.0116316
0.0130808
0.014769
0.0176222
0.0215878
0.0238267
0.024946
0.0255847
0.0261115
0.0263715
0.0267891
0.0272941
0.0279396
0.0285181
0.0288287
0.028872
0.0288024
0.0288281
0.0293632
0.0301787
0.0306482
0.0312129
0.0320236
0.0333044
0.0349965
0.0370447
0.0378506
0.0323923
0.0238161
0.0208648
0.0234769
0.0385489
0.0494693
0.045788
0.0356934
0.0410732
0.0632078
0.0960203
0.0967419
0.0929013
0.0890416
0.0885758
0.0893728
0.0915981
0.0962942
0.100177
0.102428
0.103385
0.103257
0.102516
0.100863
0.0973195
0.0939014
0.09122
0.0905043
0.0907783
0.092549
0.0948409
0.0957044
0.0954959
0.0934448
0.0844205
0.0741383
0.0673711
0.0572979
0.0439108
0.0292879
0.0171225
0.00902046
0.00454498
0.00219814
0.00103525
0.000531775
0.000389017
0.000397839
0.000599931
0.00167131
0.00595233
0.0105424
0.0154212
0.0231038
0.0403971
0.0927977
0.173526
0.214996
0.237984
0.24318
0.239932
0.22869
0.217092
0.217153
0.21947
0.225778
0.257196
0.298313
0.29612
0.237387
0.144006
0.10645
0.092822
0.0870438
0.0839674
0.080972
0.0754646
0.0638489
0.0409899
0.0229146
0.0112059
0.00513625
0.00246923
0.00151599
0.0014465
0.00224956
0.0434347
0.100913
0.0977952
0.164756
0.187007
0.199341
0.20813
0.213838
0.217416
0.219077
0.218965
0.2172
0.212279
0.203521
0.191073
0.177316
0.163869
0.147296
0.125043
0.0956853
0.0771062
0.0709675
0.0696733
0.0716607
0.0743166
0.0756724
0.0794347
0.0881505
0.0914479
0.0863213
0.0696369
0.0617039
0.0566635
0.0405761
0.0155926
0.00683983
0.0047666
0.00533296
0.00797288
0.0100285
0.0101765
0.0108135
0.0171632
0.0479999
0.136704
0.252165
0.284531
0.290062
0.284102
0.256183
0.210095
0.167618
0.144785
0.117266
0.056643
0.0204104
0.00801899
0.00412556
0.00301278
0.00266162
0.00276819
0.00345724
0.00530548
0.00821759
0.0101825
0.011793
0.0132293
0.0143475
0.0156362
0.0181714
0.0220021
0.0244236
0.0254197
0.025863
0.026179
0.0267487
0.0273339
0.0284281
0.0302103
0.0320641
0.0329318
0.0331382
0.0318426
0.0298492
0.0283403
0.0272826
0.027872
0.0287508
0.0297486
0.0310373
0.0326364
0.0345282
0.0369938
0.0402418
0.0433653
0.0421698
0.0299437
0.0204515
0.0195969
0.0310977
0.0453864
0.0447496
0.0400127
0.0414774
0.0496172
0.0673472
0.0795783
0.0818997
0.0828715
0.083489
0.0847053
0.0863948
0.0884481
0.0901824
0.0915888
0.0920484
0.091672
0.090713
0.0887513
0.0870093
0.0867506
0.0868995
0.0878912
0.0905535
0.0923281
0.092924
0.0925101
0.0896235
0.0790271
0.0697978
0.0630838
0.053127
0.0388833
0.0241779
0.0128699
0.00625914
0.00291847
0.00136936
0.000666745
0.000376467
0.000308214
0.000330054
0.000538338
0.00145332
0.00428246
0.00782563
0.0136924
0.026013
0.0605143
0.147723
0.2005
0.224592
0.227871
0.224348
0.20955
0.201534
0.202514
0.208527
0.215331
0.219286
0.234903
0.282388
0.29273
0.268819
0.178489
0.120766
0.097321
0.0879236
0.0840283
0.0819756