/*--------------------------------*- C++ -*----------------------------------*\
  =========                 |
  \\      /  F ield         | OpenFOAM: The Open Source CFD Toolbox
   \\    /   O peration     | Website:  https://openfoam.org
    \\  /    A nd           | Version:  6
     \\/     M anipulation  |
\*---------------------------------------------------------------------------*/
FoamFile
{
    version     2.0;
    format      ascii;
    class       surfaceScalarField;
    location    "0.1";
    object      phi;
}
// * * * * * * * * * * * * * * * * * * * * * * * * * * * * * * * * * * * * * //

dimensions      [0 3 -1 0 0 0 0];

internalField   nonuniform List<scalar> 
24170
(
3.12052e-06
3.68866e-08
3.04184e-06
7.86755e-08
2.94013e-06
1.01709e-07
2.82655e-06
1.1358e-07
2.71162e-06
1.14931e-07
2.60887e-06
1.02747e-07
2.5282e-06
8.06698e-08
2.46464e-06
6.35662e-08
2.4015e-06
6.31399e-08
2.32604e-06
7.54536e-08
2.2383e-06
8.77431e-08
2.1489e-06
8.94063e-08
2.06634e-06
8.25566e-08
1.99182e-06
7.45191e-08
1.92061e-06
7.12046e-08
1.84826e-06
7.23514e-08
1.76151e-06
8.6756e-08
1.08858e-07
1.65265e-06
3.39954e-06
-2.42847e-08
3.41051e-06
6.77112e-08
3.42725e-06
8.49591e-08
3.43907e-06
1.01768e-07
3.43547e-06
1.18526e-07
3.41973e-06
1.18492e-07
3.40603e-06
9.43681e-08
3.40622e-06
6.33714e-08
3.42053e-06
4.88347e-08
3.43919e-06
5.67961e-08
3.44919e-06
7.77374e-08
3.44134e-06
9.72597e-08
3.41379e-06
1.10104e-07
3.37029e-06
1.18022e-07
3.31789e-06
1.23603e-07
3.2622e-06
1.28041e-07
3.20821e-06
1.40744e-07
1.59931e-07
3.15714e-06
3.65769e-06
-8.35275e-08
3.66753e-06
5.78731e-08
3.66568e-06
8.68015e-08
3.6738e-06
9.36542e-08
3.67579e-06
1.16535e-07
3.66808e-06
1.26195e-07
3.65954e-06
1.02914e-07
3.6612e-06
6.17152e-08
3.67911e-06
3.09183e-08
3.71032e-06
2.55856e-08
3.74416e-06
4.39034e-08
3.76826e-06
7.31593e-08
3.77618e-06
1.02178e-07
3.76835e-06
1.25859e-07
3.74932e-06
1.42627e-07
3.72361e-06
1.53755e-07
3.69779e-06
1.66563e-07
1.81775e-07
3.67595e-06
3.88078e-06
-8.23e-09
3.901e-06
3.76508e-08
3.92192e-06
6.58757e-08
3.93759e-06
7.79876e-08
3.94763e-06
1.06497e-07
3.94589e-06
1.27937e-07
3.93159e-06
1.17215e-07
3.91355e-06
7.97504e-08
3.90499e-06
3.94807e-08
3.91394e-06
1.66345e-08
3.93875e-06
1.90923e-08
3.96954e-06
4.2367e-08
3.99567e-06
7.60509e-08
4.00989e-06
1.1164e-07
4.00984e-06
1.42677e-07
3.99714e-06
1.66451e-07
3.97844e-06
1.85271e-07
2.00506e-07
3.9597e-06
4.16576e-06
4.09183e-08
4.18989e-06
1.35172e-08
4.20735e-06
4.84135e-08
4.21638e-06
6.89599e-08
4.22627e-06
9.66107e-08
4.23317e-06
1.21032e-07
4.23209e-06
1.18299e-07
4.22142e-06
9.04238e-08
4.20393e-06
5.69638e-08
4.18622e-06
3.43512e-08
4.17564e-06
2.9664e-08
4.17525e-06
4.27577e-08
4.183e-06
6.82991e-08
4.19426e-06
1.00384e-07
4.20429e-06
1.32648e-07
4.21063e-06
1.6011e-07
4.21323e-06
1.82672e-07
2.01563e-07
4.21217e-06
4.55475e-06
6.25875e-08
4.53746e-06
3.08038e-08
4.52939e-06
5.64877e-08
4.52626e-06
7.20893e-08
4.52056e-06
1.02312e-07
4.51846e-06
1.23126e-07
4.52561e-06
1.11151e-07
4.53832e-06
7.77125e-08
4.54789e-06
4.73913e-08
4.54805e-06
3.4194e-08
4.53955e-06
3.81619e-08
4.5285e-06
5.38116e-08
4.52155e-06
7.52504e-08
4.52231e-06
9.96257e-08
4.53031e-06
1.24649e-07
4.54232e-06
1.48095e-07
4.55514e-06
1.69856e-07
1.9064e-07
4.56606e-06
4.84864e-06
8.17418e-08
4.86064e-06
1.88056e-08
4.87456e-06
4.25626e-08
4.87688e-06
6.97679e-08
4.87011e-06
1.09082e-07
4.86343e-06
1.29802e-07
4.86004e-06
1.14544e-07
4.85896e-06
7.87965e-08
4.86084e-06
4.55091e-08
4.86688e-06
2.81574e-08
4.87587e-06
2.91662e-08
4.88408e-06
4.56028e-08
4.88734e-06
7.19957e-08
4.88347e-06
1.03495e-07
4.87323e-06
1.34887e-07
4.85849e-06
1.62835e-07
4.84302e-06
1.85325e-07
2.04586e-07
4.82907e-06
5.34616e-06
1.06113e-07
5.35325e-06
1.17179e-08
5.30072e-06
9.50877e-08
5.24951e-06
1.20985e-07
5.23645e-06
1.22142e-07
5.24833e-06
1.17916e-07
5.25998e-06
1.02898e-07
5.25631e-06
8.24644e-08
5.23694e-06
6.48804e-08
5.21086e-06
5.42392e-08
5.18829e-06
5.17327e-08
5.17568e-06
5.82191e-08
5.17368e-06
7.39952e-08
5.18027e-06
9.69062e-08
5.19231e-06
1.22841e-07
5.20763e-06
1.47513e-07
5.2255e-06
1.67461e-07
1.83981e-07
5.2461e-06
5.5506e-06
5.69295e-08
5.52701e-06
3.53121e-08
5.56497e-06
5.71298e-08
5.6116e-06
7.43481e-08
5.65051e-06
8.32329e-08
5.68616e-06
8.22739e-08
5.71425e-06
7.48022e-08
5.72924e-06
6.7479e-08
5.73062e-06
6.34969e-08
5.72066e-06
6.41943e-08
5.70177e-06
7.06232e-08
5.67671e-06
8.3282e-08
5.64977e-06
1.00933e-07
5.62644e-06
1.20238e-07
5.61218e-06
1.37103e-07
5.60958e-06
1.50112e-07
5.61969e-06
1.57353e-07
1.64505e-07
5.63916e-06
6.01583e-06
-6.3314e-08
6.04083e-06
1.031e-08
6.04598e-06
5.19803e-08
6.03832e-06
8.20117e-08
6.02767e-06
9.38849e-08
6.01194e-06
9.80031e-08
5.98651e-06
1.00229e-07
5.95634e-06
9.76483e-08
5.93129e-06
8.85474e-08
5.91703e-06
7.84621e-08
5.91265e-06
7.49966e-08
5.91421e-06
8.17216e-08
5.9195e-06
9.5648e-08
5.92825e-06
1.11481e-07
5.94175e-06
1.23608e-07
5.96085e-06
1.31015e-07
5.9845e-06
1.33703e-07
1.35914e-07
6.01309e-06
6.29207e-06
4.3768e-08
6.29952e-06
2.85646e-09
6.34591e-06
5.59488e-09
6.39903e-06
2.88863e-08
6.43668e-06
5.6236e-08
6.4516e-06
8.30888e-08
6.45281e-06
9.90158e-08
6.45235e-06
9.8111e-08
6.45425e-06
8.66495e-08
6.45684e-06
7.58677e-08
6.45973e-06
7.21084e-08
6.46601e-06
7.54351e-08
6.47927e-06
8.23936e-08
6.50043e-06
9.03237e-08
6.52563e-06
9.84e-08
6.54935e-06
1.07304e-07
6.56566e-06
1.17386e-07
1.29446e-07
6.57213e-06
5.74393e-06
-5.51887e-08
5.79599e-06
-4.92084e-08
5.82297e-06
-2.13816e-08
5.83811e-06
1.37407e-08
5.83155e-06
6.28009e-08
5.81185e-06
1.02785e-07
5.7981e-06
1.12767e-07
5.79782e-06
9.83973e-08
5.80444e-06
8.00267e-08
5.80859e-06
7.17162e-08
5.80655e-06
7.41444e-08
5.80166e-06
8.03289e-08
5.7997e-06
8.43493e-08
5.80545e-06
8.45761e-08
5.82071e-06
8.31446e-08
5.84388e-06
8.41338e-08
5.87327e-06
8.79906e-08
9.79674e-08
5.90475e-06
6.97157e-06
1.00647e-07
6.95874e-06
-3.63759e-08
6.97394e-06
-3.65856e-08
7.00283e-06
-1.51513e-08
7.03239e-06
3.32416e-08
7.04962e-06
8.55617e-08
7.0539e-06
1.08483e-07
7.05735e-06
9.49449e-08
7.07401e-06
6.33654e-08
7.10777e-06
3.79573e-08
7.149e-06
3.29169e-08
7.18127e-06
4.80624e-08
7.19235e-06
7.32636e-08
7.18017e-06
9.67569e-08
7.15377e-06
1.09543e-07
7.12605e-06
1.11861e-07
7.10882e-06
1.05217e-07
9.68841e-08
7.1099e-06
8.63783e-06
-2.00186e-08
8.59393e-06
7.52735e-09
8.51476e-06
4.25791e-08
8.44317e-06
5.64421e-08
8.41549e-06
6.09243e-08
8.44821e-06
5.28343e-08
8.52496e-06
3.17339e-08
8.61152e-06
8.38299e-09
8.67903e-06
-4.13926e-09
8.71651e-06
4.73319e-10
8.72938e-06
2.00455e-08
8.72959e-06
4.78595e-08
8.72741e-06
7.54427e-08
8.72783e-06
9.63376e-08
8.73056e-06
1.06814e-07
8.73416e-06
1.08259e-07
8.73605e-06
1.03329e-07
9.78972e-08
8.73503e-06
1.04485e-05
6.88948e-08
1.03906e-05
6.53884e-08
1.04102e-05
2.30042e-08
1.04162e-05
5.04602e-08
1.03866e-05
9.04919e-08
1.03523e-05
8.71646e-08
1.0344e-05
4.00335e-08
1.03666e-05
-1.41808e-08
1.04029e-05
-4.05319e-08
1.04328e-05
-2.93769e-08
1.04473e-05
5.53653e-09
1.04513e-05
4.38689e-08
1.04564e-05
7.03814e-08
1.04722e-05
8.05206e-08
1.05015e-05
7.75149e-08
1.05411e-05
6.8656e-08
1.05845e-05
5.98635e-08
5.30263e-08
1.06294e-05
1.25405e-05
1.34967e-07
1.26299e-05
-2.40195e-08
1.27187e-05
-6.57754e-08
1.27511e-05
1.80876e-08
1.27521e-05
8.94764e-08
1.27527e-05
8.65556e-08
1.27606e-05
3.21727e-08
1.27645e-05
-1.8148e-08
1.27557e-05
-3.17238e-08
1.27378e-05
-1.13992e-08
1.27213e-05
2.19586e-08
1.27153e-05
4.98985e-08
1.27217e-05
6.39875e-08
1.27376e-05
6.46534e-08
1.27577e-05
5.73324e-08
1.27783e-05
4.80512e-08
1.27977e-05
4.05559e-08
3.92851e-08
1.28114e-05
1.60983e-05
3.14872e-07
1.57919e-05
2.82339e-07
1.559e-05
1.36168e-07
1.55161e-05
9.19927e-08
1.55152e-05
9.03496e-08
1.55292e-05
7.25781e-08
1.55329e-05
2.84742e-08
1.55337e-05
-1.89428e-08
1.55477e-05
-4.57196e-08
1.55817e-05
-4.54141e-08
1.56304e-05
-2.6722e-08
1.56832e-05
-2.9747e-09
1.57311e-05
1.61521e-08
1.57689e-05
2.6867e-08
1.57965e-05
2.96873e-08
1.58165e-05
2.80649e-08
1.58329e-05
2.41773e-08
1.69444e-08
1.58552e-05
1.84853e-05
-1.6808e-07
1.86199e-05
1.47707e-07
1.86462e-05
1.09894e-07
1.87194e-05
1.8786e-08
1.88214e-05
-1.16305e-08
1.89135e-05
-1.94739e-08
1.89758e-05
-3.38472e-08
1.9011e-05
-5.41645e-08
1.90354e-05
-7.01038e-08
1.90647e-05
-7.47198e-08
1.9104e-05
-6.6071e-08
1.91469e-05
-4.581e-08
1.91817e-05
-1.86688e-08
1.91987e-05
9.83192e-09
1.91968e-05
3.16572e-08
1.91819e-05
4.28837e-08
1.91657e-05
4.04529e-08
2.77901e-08
1.91548e-05
2.35108e-05
4.53186e-08
2.35147e-05
1.43825e-07
2.34559e-05
1.68671e-07
2.33274e-05
1.47321e-07
2.31928e-05
1.22994e-07
2.30777e-05
9.55994e-08
2.29913e-05
5.25891e-08
2.29362e-05
9.52145e-10
2.29087e-05
-4.26286e-08
2.29011e-05
-6.71452e-08
2.29053e-05
-7.03009e-08
2.29151e-05
-5.56093e-08
2.29273e-05
-3.08003e-08
2.29412e-05
-4.08068e-09
2.29571e-05
1.57674e-08
2.29761e-05
2.38343e-08
2.29981e-05
1.84675e-08
-3.09505e-10
2.30262e-05
1.67465e-05
2.3651e-07
1.67491e-05
1.41191e-07
1.67977e-05
1.20131e-07
1.68433e-05
1.01645e-07
1.69151e-05
5.1255e-08
1.70203e-05
-9.58346e-09
1.71262e-05
-5.33216e-08
1.71875e-05
-6.03947e-08
1.71781e-05
-3.31814e-08
1.71043e-05
6.63561e-09
1.6998e-05
3.59848e-08
1.6898e-05
4.43661e-08
1.68326e-05
3.46151e-08
1.68124e-05
1.61297e-08
1.68305e-05
-2.34781e-09
1.68718e-05
-1.74028e-08
1.69185e-05
-2.82196e-08
-3.7964e-08
1.69561e-05
1.47021e-05
-8.41301e-08
1.48676e-05
-2.42378e-08
1.49496e-05
3.80491e-08
1.49822e-05
6.91392e-08
1.49856e-05
4.78195e-08
1.49773e-05
-1.28931e-09
1.49585e-05
-3.45749e-08
1.49246e-05
-2.64236e-08
1.48796e-05
1.18394e-08
1.48386e-05
4.76222e-08
1.48187e-05
5.58954e-08
1.48297e-05
3.33584e-08
1.48707e-05
-6.45008e-09
1.49332e-05
-4.63191e-08
1.50043e-05
-7.34996e-08
1.50716e-05
-8.46359e-08
1.51245e-05
-8.11657e-08
-6.86908e-08
1.51552e-05
1.28503e-05
1.09423e-07
1.27909e-05
3.51671e-08
1.2737e-05
9.19483e-08
1.27293e-05
7.68514e-08
1.27923e-05
-1.52666e-08
1.28712e-05
-8.01188e-08
1.29099e-05
-7.33313e-08
1.29033e-05
-1.97917e-08
1.28872e-05
2.79431e-08
1.28984e-05
3.64013e-08
1.29473e-05
6.99939e-09
1.3018e-05
-3.72882e-08
1.30837e-05
-7.2166e-08
1.31219e-05
-8.45792e-08
1.31239e-05
-7.54181e-08
1.30934e-05
-5.42098e-08
1.30432e-05
-3.09756e-08
-1.68399e-08
1.29914e-05
1.10759e-05
-9.34537e-08
1.11124e-05
-1.38655e-09
1.1151e-05
5.34047e-08
1.12263e-05
1.52396e-09
1.12896e-05
-7.85783e-08
1.13073e-05
-9.77984e-08
1.12838e-05
-4.98831e-08
1.12511e-05
1.29799e-08
1.12357e-05
4.33685e-08
1.12417e-05
3.03646e-08
1.12574e-05
-8.7279e-09
1.12695e-05
-4.94075e-08
1.12711e-05
-7.37382e-08
1.12624e-05
-7.58678e-08
1.12479e-05
-6.09734e-08
1.12336e-05
-3.98248e-08
1.12246e-05
-2.1983e-08
-1.24626e-08
1.12202e-05
9.52107e-06
6.23197e-09
9.52491e-06
-5.22918e-09
9.5885e-06
-1.01835e-08
9.63631e-06
-4.62886e-08
9.62842e-06
-7.06849e-08
9.6043e-06
-7.36829e-08
9.60978e-06
-5.53581e-08
9.65026e-06
-2.75046e-08
9.70018e-06
-6.55106e-09
9.7333e-06
-2.75181e-09
9.74137e-06
-1.67949e-08
9.7335e-06
-4.15427e-08
9.72546e-06
-6.56972e-08
9.72918e-06
-7.95856e-08
9.7478e-06
-7.95897e-08
9.77682e-06
-6.88533e-08
9.80792e-06
-5.30795e-08
-3.7928e-08
9.83339e-06
8.38765e-06
-2.80207e-08
8.42695e-06
-4.45275e-08
8.47123e-06
-5.44642e-08
8.47905e-06
-5.41069e-08
8.44943e-06
-4.10635e-08
8.41462e-06
-3.88731e-08
8.40091e-06
-4.16482e-08
8.41532e-06
-4.19098e-08
8.4495e-06
-4.07378e-08
8.48803e-06
-4.12797e-08
8.51536e-06
-4.41231e-08
8.52124e-06
-4.74214e-08
8.50444e-06
-4.8904e-08
8.47157e-06
-4.6717e-08
8.43351e-06
-4.15292e-08
8.40016e-06
-3.55014e-08
8.37856e-06
-3.14809e-08
-3.22032e-08
8.37284e-06
7.35411e-06
-7.17612e-08
7.329e-06
-1.94191e-08
7.27939e-06
-4.85645e-09
7.25147e-06
-2.61797e-08
7.26941e-06
-5.90009e-08
7.31106e-06
-8.05284e-08
7.34949e-06
-8.0081e-08
7.37763e-06
-7.00432e-08
7.40292e-06
-6.60289e-08
7.43122e-06
-6.95784e-08
7.45825e-06
-7.11568e-08
7.4736e-06
-6.27715e-08
7.46998e-06
-4.52838e-08
7.44903e-06
-2.57671e-08
7.41997e-06
-1.24649e-08
7.39381e-06
-9.3487e-09
7.37919e-06
-1.68591e-08
-3.08212e-08
7.37781e-06
6.33275e-06
8.45157e-09
6.30148e-06
1.18554e-08
6.31848e-06
-2.18637e-08
6.33772e-06
-4.54113e-08
6.36148e-06
-8.27679e-08
6.3913e-06
-1.10341e-07
6.4222e-06
-1.10983e-07
6.44775e-06
-9.56e-08
6.46355e-06
-8.18245e-08
6.46929e-06
-7.53158e-08
6.46806e-06
-6.99347e-08
6.46411e-06
-5.88202e-08
6.46088e-06
-4.20504e-08
6.46052e-06
-2.54082e-08
6.46369e-06
-1.56315e-08
6.46992e-06
-1.55842e-08
6.47746e-06
-2.43942e-08
-3.85968e-08
6.48523e-06
5.64654e-06
1.27585e-07
5.61532e-06
4.3071e-08
5.62812e-06
-3.4659e-08
5.66098e-06
-7.82769e-08
5.67748e-06
-9.9262e-08
5.66031e-06
-9.31713e-08
5.62687e-06
-7.75446e-08
5.60045e-06
-6.91802e-08
5.58812e-06
-6.94968e-08
5.58407e-06
-7.12629e-08
5.58238e-06
-6.82518e-08
5.58312e-06
-5.95564e-08
5.58963e-06
-4.85583e-08
5.60365e-06
-3.94269e-08
5.62276e-06
-3.4741e-08
5.64204e-06
-3.48649e-08
5.65621e-06
-3.85698e-08
-4.40566e-08
5.66167e-06
4.85085e-06
2.73433e-08
4.89991e-06
-5.98685e-09
4.92463e-06
-5.93801e-08
4.93934e-06
-9.29799e-08
4.92888e-06
-8.88014e-08
4.90229e-06
-6.65802e-08
4.87944e-06
-5.46957e-08
4.86847e-06
-5.82166e-08
4.86487e-06
-6.58918e-08
4.86199e-06
-6.83901e-08
4.85826e-06
-6.45212e-08
4.85649e-06
-5.77777e-08
4.85959e-06
-5.1663e-08
4.86752e-06
-4.73591e-08
4.87728e-06
-4.4503e-08
4.88486e-06
-4.24444e-08
4.88705e-06
-4.0759e-08
-4.09933e-08
4.88399e-06
4.13443e-06
4.12844e-06
4.06906e-06
3.97608e-06
3.88728e-06
3.8207e-06
3.766e-06
3.70779e-06
3.64189e-06
3.5735e-06
3.50898e-06
3.4512e-06
3.39954e-06
3.35218e-06
3.30768e-06
3.26524e-06
3.22448e-06
3.18348e-06
-2.05521e-07
2.05521e-07
-4.13735e-07
2.08214e-07
-6.07356e-07
1.93621e-07
-7.30644e-07
1.23288e-07
-7.43729e-07
1.30849e-08
-6.59519e-07
-8.42096e-08
-5.07063e-07
-1.52457e-07
-3.16518e-07
-1.90545e-07
-1.14306e-07
-2.02212e-07
8.2555e-08
-1.96861e-07
2.65161e-07
-1.82606e-07
4.29692e-07
-1.64531e-07
5.7436e-07
-1.44668e-07
6.98197e-07
-1.23837e-07
8.01237e-07
-1.0304e-07
8.84194e-07
-8.2957e-08
9.47501e-07
-6.3307e-08
9.91113e-07
-4.36116e-08
1.01443e-06
-2.3314e-08
1.0159e-06
-1.47604e-09
9.9319e-07
2.27124e-08
9.44184e-07
4.90058e-08
8.65513e-07
7.8671e-08
7.57916e-07
1.07598e-07
6.03772e-07
1.54144e-07
4.14153e-07
1.89619e-07
2.81876e-07
1.32277e-07
2.30988e-07
5.08881e-08
2.30091e-07
8.96904e-10
2.9053e-07
-6.04387e-08
4.07431e-07
-1.16901e-07
5.32489e-07
-1.25058e-07
6.49071e-07
-1.16582e-07
7.49272e-07
-1.00201e-07
8.53507e-07
-1.04235e-07
1.00466e-06
-1.51148e-07
1.21328e-06
-2.08627e-07
1.45334e-06
-2.40061e-07
1.68376e-06
-2.30418e-07
1.86102e-06
-1.77257e-07
1.96993e-06
-1.08913e-07
2.03613e-06
-6.61964e-08
2.08844e-06
-5.23089e-08
2.12391e-06
-3.54778e-08
2.12654e-06
-2.63069e-09
2.10541e-06
2.11383e-08
2.08963e-06
1.57766e-08
2.0995e-06
-9.87421e-09
2.13434e-06
-3.48335e-08
2.17646e-06
-4.21253e-08
2.20051e-06
-2.40494e-08
2.18046e-06
2.00552e-08
2.09688e-06
8.35756e-08
1.94536e-06
1.51526e-07
1.74002e-06
2.0534e-07
1.5136e-06
2.26414e-07
1.32442e-06
1.89184e-07
1.25184e-06
7.25734e-08
1.35902e-06
-1.07178e-07
1.49812e-06
-1.39094e-07
1.48189e-06
1.62235e-08
1.22229e-06
2.59602e-07
7.19422e-07
5.02868e-07
5.34094e-09
7.14082e-07
-7.84201e-07
7.89542e-07
-1.4148e-06
6.30599e-07
-1.98375e-06
5.68953e-07
-2.4788e-06
4.95043e-07
-2.9036e-06
4.24809e-07
-3.31655e-06
4.12947e-07
-3.70362e-06
3.8707e-07
-4.06675e-06
3.63133e-07
-4.41385e-06
3.47098e-07
-4.74396e-06
3.30104e-07
-5.0555e-06
3.11543e-07
-5.34522e-06
2.89718e-07
-5.60874e-06
2.63521e-07
-5.8409e-06
2.32165e-07
-6.0369e-06
1.95993e-07
-6.19171e-06
1.54812e-07
-6.2996e-06
1.07892e-07
-6.35527e-06
5.56741e-08
-6.35526e-06
-1.77142e-11
-6.29898e-06
-5.62799e-08
-6.18782e-06
-1.11153e-07
-6.02441e-06
-1.63412e-07
-5.81301e-06
-2.114e-07
-5.55881e-06
-2.54203e-07
-5.26693e-06
-2.91874e-07
-4.94145e-06
-3.25483e-07
-4.58488e-06
-3.56574e-07
-4.1977e-06
-3.87175e-07
-3.77695e-06
-4.20752e-07
-3.3139e-06
-4.63048e-07
-2.79126e-06
-5.22645e-07
-2.17995e-06
-6.11305e-07
-1.43856e-06
-7.41395e-07
-5.24458e-07
-9.14101e-07
5.71588e-07
-1.09605e-06
1.76269e-06
-1.1911e-06
2.82373e-06
-1.06104e-06
3.44982e-06
-6.26093e-07
3.39336e-06
5.64609e-08
2.59529e-06
7.9807e-07
1.3015e-06
1.29379e-06
1.61738e-07
1.13976e-06
-1.22387e-06
1.38561e-06
-3.83463e-06
2.61077e-06
-7.46818e-06
3.63354e-06
-9.99502e-06
2.52684e-06
-1.16869e-05
1.69189e-06
-1.28773e-05
1.19038e-06
-1.3499e-05
6.21751e-07
-1.39015e-05
4.02513e-07
-1.40392e-05
1.37696e-07
-1.40512e-05
1.19664e-08
-1.39387e-05
-1.12469e-07
-1.37369e-05
-2.01839e-07
-1.3457e-05
-2.7993e-07
-1.31033e-05
-3.53673e-07
-1.26904e-05
-4.12893e-07
-1.2221e-05
-4.69406e-07
-1.17076e-05
-5.13363e-07
-1.11555e-05
-5.52133e-07
-1.05729e-05
-5.82621e-07
-9.96242e-06
-6.10466e-07
-9.32011e-06
-6.42307e-07
-8.63169e-06
-6.88419e-07
-7.87419e-06
-7.57505e-07
-7.02481e-06
-8.49372e-07
-6.07128e-06
-9.53537e-07
-5.0227e-06
-1.04858e-06
-3.91241e-06
-1.11029e-06
-2.78952e-06
-1.12289e-06
-1.70634e-06
-1.08318e-06
-7.09909e-07
-9.9643e-07
1.62891e-07
-8.728e-07
8.96275e-07
-7.33385e-07
1.50773e-06
-6.11458e-07
2.03558e-06
-5.2785e-07
2.51743e-06
-4.81846e-07
2.97765e-06
-4.60219e-07
3.42408e-06
-4.46432e-07
3.8537e-06
-4.29621e-07
4.26275e-06
-4.09046e-07
4.65401e-06
-3.91259e-07
5.03785e-06
-3.83844e-07
5.42897e-06
-3.91121e-07
5.84093e-06
-4.11954e-07
6.28091e-06
-4.39983e-07
6.74743e-06
-4.66517e-07
7.23002e-06
-4.82597e-07
7.71249e-06
-4.8247e-07
8.17428e-06
-4.61785e-07
8.59174e-06
-4.17462e-07
8.94572e-06
-3.53977e-07
9.23073e-06
-2.85017e-07
9.42749e-06
-1.96757e-07
9.46015e-06
-3.26586e-08
9.27774e-06
1.82408e-07
8.87034e-06
4.07399e-07
8.2964e-06
5.73942e-07
7.61644e-06
6.79967e-07
6.78968e-06
8.26753e-07
5.93825e-06
8.51433e-07
4.65848e-06
1.27977e-06
2.71201e-06
1.94647e-06
9.41844e-07
1.77016e-06
-1.6343e-07
1.10527e-06
-5.44173e-07
3.80743e-07
-7.16178e-07
1.72005e-07
-9.86903e-07
2.70725e-07
-1.1648e-06
1.77897e-07
-1.21182e-06
4.70147e-08
-1.13764e-06
-7.41805e-08
-9.24495e-07
-2.1314e-07
-6.39757e-07
-2.84738e-07
-3.68497e-07
-2.7126e-07
-1.4677e-07
-2.21727e-07
-1.59858e-07
1.30884e-08
-1.48167e-07
3.53687e-07
-3.09465e-07
3.69513e-07
-4.23286e-07
3.07441e-07
-4.59603e-07
1.59605e-07
-4.14369e-07
-3.21485e-08
-3.01122e-07
-1.97457e-07
-1.42888e-07
-3.1069e-07
3.3057e-08
-3.6649e-07
2.10697e-07
-3.79852e-07
3.8072e-07
-3.66884e-07
5.37738e-07
-3.39624e-07
6.78768e-07
-3.05561e-07
8.03081e-07
-2.68982e-07
9.11456e-07
-2.32212e-07
1.00488e-06
-1.96463e-07
1.08438e-06
-1.62457e-07
1.15146e-06
-1.30383e-07
1.20788e-06
-1.00037e-07
1.25523e-06
-7.06587e-08
1.29585e-06
-4.20954e-08
1.33074e-06
-1.21806e-08
1.3612e-06
1.85456e-08
1.3858e-06
5.40707e-08
1.40416e-06
8.92328e-08
1.43549e-06
1.22821e-07
1.46913e-06
1.5597e-07
1.4531e-06
1.48314e-07
1.36161e-06
1.42378e-07
1.19042e-06
1.72088e-07
9.58492e-07
1.71485e-07
7.34624e-07
1.06967e-07
6.12591e-07
-3.02503e-09
6.14938e-07
-1.1893e-07
6.91973e-07
-1.77236e-07
8.18034e-07
-2.30296e-07
9.99584e-07
-3.32698e-07
1.1916e-06
-4.00638e-07
1.32686e-06
-3.75323e-07
1.37929e-06
-2.82849e-07
1.37862e-06
-1.7659e-07
1.37405e-06
-1.04345e-07
1.38417e-06
-7.63149e-08
1.40977e-06
-7.79009e-08
1.46473e-06
-9.04442e-08
1.56402e-06
-1.0192e-07
1.69872e-06
-1.13561e-07
1.84635e-06
-1.31855e-07
1.99073e-06
-1.54256e-07
2.12073e-06
-1.64825e-07
2.22294e-06
-1.4434e-07
2.28194e-06
-8.30479e-08
2.28819e-06
1.38081e-08
2.23856e-06
1.33199e-07
2.1263e-06
2.63792e-07
1.9495e-06
3.82132e-07
1.72172e-06
4.54195e-07
1.46544e-06
4.45467e-07
1.23959e-06
2.98424e-07
9.63609e-07
1.68803e-07
4.67365e-07
3.5715e-07
-2.34689e-07
7.18277e-07
-1.01722e-06
1.04213e-06
-1.75208e-06
1.23773e-06
-2.31957e-06
1.28158e-06
-2.74491e-06
1.21488e-06
-3.19762e-06
1.08331e-06
-3.62647e-06
9.97799e-07
-4.02781e-06
8.9638e-07
-4.43848e-06
8.3548e-07
-4.83488e-06
8.09348e-07
-5.22051e-06
7.72701e-07
-5.59449e-06
7.3711e-07
-5.94843e-06
7.01042e-07
-6.28288e-06
6.64557e-07
-6.59424e-06
6.22903e-07
-6.87374e-06
5.69218e-07
-7.11475e-06
5.04523e-07
-7.31387e-06
4.31293e-07
-7.46702e-06
3.49136e-07
-7.56895e-06
2.56742e-07
-7.61714e-06
1.56083e-07
-7.61276e-06
5.12997e-08
-7.55796e-06
-5.4816e-08
-7.45347e-06
-1.60771e-07
-7.30092e-06
-2.63712e-07
-7.10424e-06
-3.60084e-07
-6.86762e-06
-4.48024e-07
-6.59487e-06
-5.26956e-07
-6.28979e-06
-5.96946e-07
-5.95626e-06
-6.59022e-07
-5.59696e-06
-7.15871e-07
-5.21184e-06
-7.72293e-07
-4.79684e-06
-8.35757e-07
-4.3423e-06
-9.17581e-07
-3.83053e-06
-1.03442e-06
-3.23341e-06
-1.20842e-06
-2.51353e-06
-1.46127e-06
-1.63497e-06
-1.79267e-06
-5.97174e-07
-2.13384e-06
5.08219e-07
-2.2965e-06
1.45558e-06
-2.0084e-06
1.95579e-06
-1.1263e-06
1.8666e-06
1.45655e-07
1.25197e-06
1.4127e-06
1.13418e-07
2.43234e-06
-2.09268e-06
3.34585e-06
-5.71855e-06
5.01147e-06
-9.14214e-06
6.03436e-06
-1.06348e-05
5.12625e-06
-1.14719e-05
3.36391e-06
-1.21298e-05
2.34981e-06
-1.2485e-05
1.54558e-06
-1.27617e-05
8.9843e-07
-1.29153e-05
5.56058e-07
-1.29634e-05
1.85861e-07
-1.29305e-05
-2.09454e-08
-1.27944e-05
-2.48542e-07
-1.25803e-05
-4.16027e-07
-1.22855e-05
-5.74718e-07
-1.19258e-05
-7.13358e-07
-1.15062e-05
-8.3244e-07
-1.10361e-05
-9.39569e-07
-1.05249e-05
-1.02456e-06
-9.97985e-06
-1.09715e-06
-9.40918e-06
-1.1533e-06
-8.81586e-06
-1.20379e-06
-8.19726e-06
-1.2609e-06
-7.53931e-06
-1.34637e-06
-6.81621e-06
-1.4806e-06
-5.99819e-06
-1.6674e-06
-5.06485e-06
-1.88688e-06
-4.02022e-06
-2.0932e-06
-2.89965e-06
-2.23086e-06
-1.75593e-06
-2.26662e-06
-6.45533e-07
-2.19357e-06
3.73424e-07
-2.01539e-06
1.25733e-06
-1.7567e-06
1.99946e-06
-1.47552e-06
2.6204e-06
-1.23239e-06
3.15498e-06
-1.06243e-06
3.64084e-06
-9.67704e-07
4.10374e-06
-9.2312e-07
4.55153e-06
-8.94217e-07
4.97996e-06
-8.58056e-07
5.3842e-06
-8.1328e-07
5.76705e-06
-7.74114e-07
6.14026e-06
-7.57053e-07
6.51982e-06
-7.7068e-07
6.92001e-06
-8.12147e-07
7.34902e-06
-8.6899e-07
7.80657e-06
-9.24071e-07
8.28191e-06
-9.57934e-07
8.75292e-06
-9.53484e-07
9.19628e-06
-9.05144e-07
9.59707e-06
-8.18249e-07
9.93669e-06
-6.93602e-07
1.01658e-05
-5.14078e-07
1.02549e-05
-2.85905e-07
1.0247e-05
-2.47421e-08
1.01872e-05
2.42209e-07
1.00786e-05
5.15949e-07
9.86492e-06
7.87652e-07
9.54334e-06
1.00155e-06
9.06408e-06
1.30602e-06
8.39215e-06
1.52336e-06
7.69523e-06
1.97669e-06
6.7118e-06
2.9299e-06
5.15395e-06
3.32801e-06
3.3184e-06
2.94083e-06
1.58615e-06
2.11299e-06
4.18468e-07
1.33968e-06
-5.89424e-08
7.48135e-07
-1.84472e-07
3.03427e-07
-2.30666e-07
9.32086e-08
-2.03138e-07
-1.01708e-07
-6.01265e-08
-3.56151e-07
1.36077e-07
-4.80942e-07
3.33331e-07
-4.68514e-07
5.05715e-07
-3.94112e-07
-2.88465e-07
6.34322e-07
-2.82255e-08
3.81913e-07
-8.20542e-08
4.23342e-07
-1.27365e-07
3.52752e-07
-1.18149e-07
1.5039e-07
-4.32103e-08
-1.07087e-07
7.70817e-08
-3.17749e-07
2.12197e-07
-4.45805e-07
3.45995e-07
-5.00288e-07
4.71331e-07
-5.05188e-07
5.86379e-07
-4.81933e-07
6.90673e-07
-4.43917e-07
7.83819e-07
-3.98706e-07
8.65354e-07
-3.50517e-07
9.35196e-07
-3.02055e-07
9.93919e-07
-2.55186e-07
1.04267e-06
-2.11207e-07
1.08321e-06
-1.70921e-07
1.11794e-06
-1.34771e-07
1.14992e-06
-1.0264e-07
1.18159e-06
-7.3762e-08
1.21714e-06
-4.77291e-08
1.25946e-06
-2.37788e-08
1.31358e-06
-5.12973e-11
1.37938e-06
2.34346e-08
1.4542e-06
4.7999e-08
1.53294e-06
7.72295e-08
1.57579e-06
1.05469e-07
1.58498e-06
1.33185e-07
1.60409e-06
1.52978e-07
1.59973e-06
1.75843e-07
1.49974e-06
2.06957e-07
1.32621e-06
1.70506e-07
1.16482e-06
4.24661e-08
1.08178e-06
-9.42019e-08
1.09877e-06
-2.47286e-07
1.16579e-06
-3.9971e-07
1.17723e-06
-4.12083e-07
1.09026e-06
-2.88356e-07
9.75848e-07
-1.68434e-07
9.25157e-07
-1.259e-07
9.71009e-07
-1.50198e-07
1.0944e-06
-1.99706e-07
1.25903e-06
-2.42526e-07
1.43451e-06
-2.65932e-07
1.60027e-06
-2.67674e-07
1.74912e-06
-2.62412e-07
1.89812e-06
-2.80859e-07
2.06446e-06
-3.20594e-07
2.23546e-06
-3.35821e-07
2.37258e-06
-2.81466e-07
2.43765e-06
-1.48114e-07
2.40489e-06
4.65662e-08
2.27256e-06
2.65534e-07
2.05774e-06
4.78603e-07
1.7698e-06
6.70074e-07
1.41187e-06
8.12129e-07
9.96481e-07
8.60854e-07
4.9874e-07
7.96165e-07
-2.17559e-07
8.85102e-07
-1.04434e-06
1.18393e-06
-1.77727e-06
1.45122e-06
-2.36055e-06
1.62541e-06
-2.76289e-06
1.64006e-06
-3.01833e-06
1.53702e-06
-3.25263e-06
1.44917e-06
-3.57064e-06
1.40132e-06
-3.92317e-06
1.35033e-06
-4.30296e-06
1.27617e-06
-4.70452e-06
1.23704e-06
-5.10324e-06
1.20807e-06
-5.4952e-06
1.16466e-06
-5.87199e-06
1.1139e-06
-6.22765e-06
1.0567e-06
-6.56176e-06
9.9867e-07
-6.86784e-06
9.2898e-07
-7.13799e-06
8.39369e-07
-7.36884e-06
7.35376e-07
-7.55617e-06
6.18617e-07
-7.693e-06
4.8597e-07
-7.77527e-06
3.39011e-07
-7.80268e-06
1.83494e-07
-7.77511e-06
2.37266e-08
-7.69244e-06
-1.37481e-07
-7.55719e-06
-2.96021e-07
-7.37433e-06
-4.46577e-07
-7.14922e-06
-5.85189e-07
-6.88729e-06
-7.09957e-07
-6.5942e-06
-8.20038e-07
-6.27585e-06
-9.15302e-07
-5.93766e-06
-9.97206e-07
-5.58409e-06
-1.06944e-06
-5.2183e-06
-1.13808e-06
-4.84155e-06
-1.21251e-06
-4.45158e-06
-1.30756e-06
-4.04026e-06
-1.44574e-06
-3.59116e-06
-1.65752e-06
-3.0786e-06
-1.97383e-06
-2.47498e-06
-2.39628e-06
-1.779e-06
-2.82983e-06
-1.06219e-06
-3.0133e-06
-4.93377e-07
-2.57722e-06
-2.89931e-07
-1.32975e-06
-6.20967e-07
4.76691e-07
-1.6245e-06
2.41623e-06
-3.54502e-06
4.35286e-06
-6.41453e-06
6.21536e-06
-8.96438e-06
7.56132e-06
-1.00789e-05
7.14886e-06
-1.01203e-05
5.16762e-06
-1.03379e-05
3.58151e-06
-1.06523e-05
2.66421e-06
-1.08925e-05
1.78586e-06
-1.1169e-05
1.17486e-06
-1.13181e-05
7.0518e-07
-1.13931e-05
2.60834e-07
-1.13609e-05
-5.30623e-08
-1.12359e-05
-3.73546e-07
-1.10291e-05
-6.22821e-07
-1.0742e-05
-8.61829e-07
-1.03894e-05
-1.066e-06
-9.97681e-06
-1.24503e-06
-9.51888e-06
-1.3975e-06
-9.02684e-06
-1.51659e-06
-8.51398e-06
-1.61001e-06
-7.99009e-06
-1.67719e-06
-7.46147e-06
-1.73242e-06
-6.92781e-06
-1.79455e-06
-6.37612e-06
-1.89807e-06
-5.77561e-06
-2.0811e-06
-5.08214e-06
-2.36086e-06
-4.25699e-06
-2.71203e-06
-3.29087e-06
-3.05932e-06
-2.22032e-06
-3.30141e-06
-1.10312e-06
-3.38382e-06
2.19328e-09
-3.29889e-06
1.03794e-06
-3.05113e-06
1.96036e-06
-2.67913e-06
2.74813e-06
-2.26329e-06
3.40938e-06
-1.89364e-06
3.97811e-06
-1.63116e-06
4.49624e-06
-1.48584e-06
4.99418e-06
-1.42106e-06
5.48055e-06
-1.38059e-06
5.94654e-06
-1.32404e-06
6.37994e-06
-1.24668e-06
6.7776e-06
-1.17177e-06
7.14908e-06
-1.12854e-06
7.51272e-06
-1.13431e-06
7.88846e-06
-1.18789e-06
8.29161e-06
-1.27214e-06
8.72841e-06
-1.36087e-06
9.19301e-06
-1.42253e-06
9.66641e-06
-1.42689e-06
1.01254e-05
-1.36413e-06
1.05537e-05
-1.24654e-06
1.09363e-05
-1.07624e-06
1.12221e-05
-7.99815e-07
1.13145e-05
-3.78302e-07
1.11629e-05
1.26802e-07
1.08204e-05
5.84727e-07
1.04202e-05
9.16175e-07
1.00242e-05
1.18361e-06
9.63034e-06
1.39543e-06
9.23048e-06
1.70588e-06
8.69732e-06
2.05653e-06
8.24935e-06
2.42465e-06
7.94523e-06
3.23403e-06
7.30999e-06
3.96325e-06
6.33027e-06
3.92055e-06
5.19627e-06
3.24699e-06
4.08119e-06
2.45476e-06
3.07123e-06
1.7581e-06
2.18581e-06
1.18884e-06
1.58247e-06
6.96553e-07
1.31525e-06
1.65512e-07
1.21528e-06
-2.56187e-07
1.15217e-06
-4.1783e-07
1.118e-06
-4.34342e-07
1.11951e-06
-3.95624e-07
-3.2541e-07
1.15646e-06
6.51431e-08
3.1677e-07
7.16237e-08
4.16861e-07
8.86873e-08
3.35688e-07
1.7939e-07
5.96869e-08
3.12373e-07
-2.4007e-07
4.48243e-07
-4.5362e-07
5.67432e-07
-5.64994e-07
6.67833e-07
-6.00689e-07
7.53888e-07
-5.91243e-07
8.29837e-07
-5.57882e-07
8.97881e-07
-5.11961e-07
9.58183e-07
-4.59009e-07
1.00977e-06
-4.02105e-07
1.0515e-06
-3.4378e-07
1.08275e-06
-2.86435e-07
1.10373e-06
-2.32194e-07
1.11566e-06
-1.82844e-07
1.12033e-06
-1.39441e-07
1.12064e-06
-1.02952e-07
1.12e-06
-7.31274e-08
1.12274e-06
-5.04659e-08
1.13201e-06
-3.30486e-08
1.15172e-06
-1.97576e-08
1.18438e-06
-9.22684e-09
1.2289e-06
3.47829e-09
1.29139e-06
1.47338e-08
1.36588e-06
3.09857e-08
1.44184e-06
5.7227e-08
1.51227e-06
8.25444e-08
1.5596e-06
1.28514e-07
1.57741e-06
1.89146e-07
1.54481e-06
2.03106e-07
1.43317e-06
1.54112e-07
1.30619e-06
3.27692e-08
1.23453e-06
-1.75623e-07
1.17895e-06
-3.44126e-07
1.08729e-06
-3.20424e-07
9.84381e-07
-1.85449e-07
9.42247e-07
-1.26299e-07
9.99146e-07
-1.82798e-07
1.12951e-06
-2.80558e-07
1.28523e-06
-3.55429e-07
1.42878e-06
-3.86074e-07
1.5398e-06
-3.76956e-07
1.63026e-06
-3.58132e-07
1.76147e-06
-3.93619e-07
1.98579e-06
-5.05183e-07
2.27138e-06
-6.06185e-07
2.53429e-06
-5.9873e-07
2.69633e-06
-4.4351e-07
2.72633e-06
-1.78112e-07
2.62844e-06
1.44464e-07
2.39901e-06
4.94961e-07
2.05204e-06
8.25574e-07
1.60393e-06
1.11819e-06
1.06437e-06
1.35168e-06
4.65029e-07
1.4602e-06
-2.37619e-07
1.49881e-06
-1.03145e-06
1.67893e-06
-1.70909e-06
1.86157e-06
-2.20359e-06
1.94572e-06
-2.55911e-06
1.98093e-06
-2.82015e-06
1.9011e-06
-3.05645e-06
1.77333e-06
-3.32949e-06
1.72221e-06
-3.65829e-06
1.73013e-06
-4.02551e-06
1.71754e-06
-4.42277e-06
1.67343e-06
-4.82663e-06
1.6409e-06
-5.22482e-06
1.60627e-06
-5.61727e-06
1.55711e-06
-5.99564e-06
1.49227e-06
-6.35738e-06
1.41843e-06
-6.69916e-06
1.34045e-06
-7.01101e-06
1.24084e-06
-7.2879e-06
1.11626e-06
-7.52578e-06
9.73255e-07
-7.71542e-06
8.08256e-07
-7.85008e-06
6.20631e-07
-7.92801e-06
4.16943e-07
-7.94767e-06
2.03157e-07
-7.90776e-06
-1.6187e-08
-7.80965e-06
-2.35591e-07
-7.65736e-06
-4.4831e-07
-7.45588e-06
-6.48057e-07
-7.21069e-06
-8.30383e-07
-6.92824e-06
-9.92409e-07
-6.61584e-06
-1.13243e-06
-6.28093e-06
-1.25022e-06
-5.93057e-06
-1.34756e-06
-5.57174e-06
-1.42827e-06
-5.21184e-06
-1.49799e-06
-4.85928e-06
-1.56506e-06
-4.5239e-06
-1.64294e-06
-4.21642e-06
-1.75322e-06
-3.94589e-06
-1.92805e-06
-3.71503e-06
-2.20469e-06
-3.51853e-06
-2.59279e-06
-3.35366e-06
-2.9947e-06
-3.24608e-06
-3.12087e-06
-3.27451e-06
-2.54879e-06
-3.57342e-06
-1.03083e-06
-4.32728e-06
1.23055e-06
-5.68255e-06
3.77151e-06
-7.49586e-06
6.16617e-06
-9.17344e-06
7.89294e-06
-9.78187e-06
8.16976e-06
-9.39931e-06
6.76629e-06
-9.11415e-06
4.88246e-06
-9.27463e-06
3.742e-06
-9.47007e-06
2.85965e-06
-9.69719e-06
2.01298e-06
-9.92891e-06
1.40658e-06
-1.00575e-05
8.33788e-07
-1.01192e-05
3.22558e-07
-1.00729e-05
-9.94352e-08
-9.93941e-06
-5.07005e-07
-9.71437e-06
-8.47867e-07
-9.40646e-06
-1.16974e-06
-9.02264e-06
-1.44981e-06
-8.57204e-06
-1.69563e-06
-8.07173e-06
-1.89781e-06
-7.54025e-06
-2.04807e-06
-7.00176e-06
-2.1485e-06