/*--------------------------------*- C++ -*----------------------------------*\
  =========                 |
  \\      /  F ield         | OpenFOAM: The Open Source CFD Toolbox
   \\    /   O peration     | Website:  https://openfoam.org
    \\  /    A nd           | Version:  6
     \\/     M anipulation  |
\*---------------------------------------------------------------------------*/
FoamFile
{
    version     2.0;
    format      ascii;
    class       surfaceScalarField;
    location    "0.1";
    object      phi_0;
}
// * * * * * * * * * * * * * * * * * * * * * * * * * * * * * * * * * * * * * //

dimensions      [0 3 -1 0 0 0 0];

internalField   nonuniform List<scalar> 
24170
(
3.11783e-06
4.80798e-08
3.03786e-06
7.99726e-08
2.93683e-06
1.01026e-07
2.82404e-06
1.12794e-07
2.71017e-06
1.13868e-07
2.60899e-06
1.0118e-07
2.52998e-06
7.90037e-08
2.46738e-06
6.26027e-08
2.40422e-06
6.31627e-08
2.32828e-06
7.5938e-08
2.24036e-06
8.79247e-08
2.15141e-06
8.89503e-08
2.06967e-06
8.17343e-08
1.99597e-06
7.37035e-08
1.92546e-06
7.05102e-08
1.85371e-06
7.17494e-08
1.76782e-06
8.58865e-08
1.05795e-07
1.66203e-06
3.39439e-06
1.09052e-08
3.40568e-06
6.86857e-08
3.42498e-06
8.17266e-08
3.43772e-06
1.00055e-07
3.43443e-06
1.17159e-07
3.41944e-06
1.16161e-07
3.40739e-06
9.10546e-08
3.40962e-06
6.03761e-08
3.42549e-06
4.72933e-08
3.44467e-06
5.6753e-08
3.45414e-06
7.84601e-08
3.44512e-06
9.79669e-08
3.41643e-06
1.10428e-07
3.37233e-06
1.17802e-07
3.32016e-06
1.22677e-07
3.26558e-06
1.26337e-07
3.21342e-06
1.3804e-07
1.54803e-07
3.16441e-06
3.65123e-06
-7.33637e-08
3.66202e-06
5.79002e-08
3.66256e-06
8.11884e-08
3.67231e-06
9.03053e-08
3.67476e-06
1.14707e-07
3.66763e-06
1.23285e-07
3.66038e-06
9.83083e-08
3.66393e-06
5.68311e-08
3.68376e-06
2.74575e-08
3.71621e-06
2.4306e-08
3.75019e-06
4.44745e-08
3.77356e-06
7.46032e-08
3.78047e-06
1.03515e-07
3.7719e-06
1.26374e-07
3.75269e-06
1.41885e-07
3.72737e-06
1.51658e-07
3.70244e-06
1.62965e-07
1.75811e-07
3.68144e-06
3.86881e-06
-1.63698e-08
3.89688e-06
2.98325e-08
3.91972e-06
5.83464e-08
3.93663e-06
7.33915e-08
3.94728e-06
1.04057e-07
3.94561e-06
1.24957e-07
3.93148e-06
1.12433e-07
3.91438e-06
7.39331e-08
3.90758e-06
3.42591e-08
3.91856e-06
1.33278e-08
3.94491e-06
1.81234e-08
3.97631e-06
4.32056e-08
4.00216e-06
7.76607e-08
4.01558e-06
1.12956e-07
4.01465e-06
1.42812e-07
4.00141e-06
1.64902e-07
3.98265e-06
1.81722e-07
1.94545e-07
3.96392e-06
4.15376e-06
-6.73865e-09
4.18557e-06
-1.97921e-09
4.20459e-06
3.93208e-08
4.21509e-06
6.28998e-08
4.22629e-06
9.28494e-08
4.23387e-06
1.17378e-07
4.23299e-06
1.13321e-07
4.22234e-06
8.45787e-08
4.20509e-06
5.15114e-08
4.18813e-06
3.02897e-08
4.17881e-06
2.74368e-08
4.1798e-06
4.22194e-08
4.18865e-06
6.88039e-08
4.20057e-06
1.01041e-07
4.21087e-06
1.32511e-07
4.21726e-06
1.58515e-07
4.21971e-06
1.79276e-07
1.96144e-07
4.21811e-06
4.54326e-06
-6.12452e-09
4.53078e-06
1.05033e-08
4.52539e-06
4.47149e-08
4.52403e-06
6.42591e-08
4.51969e-06
9.71915e-08
4.51924e-06
1.17821e-07
4.528e-06
1.04562e-07
4.54165e-06
7.09298e-08
4.55131e-06
4.1849e-08
4.55115e-06
3.0449e-08
4.54261e-06
3.59793e-08
4.53217e-06
5.26607e-08
4.52639e-06
7.45782e-08
4.5285e-06
9.89312e-08
4.53761e-06
1.23405e-07
4.55025e-06
1.45873e-07
4.56314e-06
1.66384e-07
1.85782e-07
4.57351e-06
4.83998e-06
6.28637e-08
4.85608e-06
-5.60287e-09
4.87152e-06
2.92785e-08
4.87486e-06
6.09166e-08
4.86921e-06
1.0285e-07
4.86384e-06
1.23184e-07
4.86162e-06
1.06783e-07
4.86153e-06
7.10187e-08
4.86439e-06
3.89904e-08
4.87135e-06
2.34936e-08
4.88099e-06
2.63318e-08
4.88944e-06
4.42149e-08
4.89256e-06
7.14635e-08
4.88837e-06
1.0312e-07
4.87782e-06
1.33953e-07
4.8629e-06
1.60792e-07
4.84738e-06
1.81898e-07
1.99797e-07
4.83337e-06
5.33668e-06
4.31397e-08
5.34672e-06
-1.56475e-08
5.29344e-06
8.25608e-08
5.24549e-06
1.08861e-07
5.2364e-06
1.11949e-07
5.25044e-06
1.09135e-07
5.26236e-06
9.48713e-08
5.25806e-06
7.53142e-08
5.23827e-06
5.87848e-08
5.21255e-06
4.92141e-08
5.19109e-06
4.77842e-08
5.17995e-06
5.53575e-08
5.17937e-06
7.20428e-08
5.18712e-06
9.53725e-08
5.20001e-06
1.21063e-07
5.21595e-06
1.44853e-07
5.23423e-06
1.63617e-07
1.79046e-07
5.25498e-06
5.5452e-06
2.94327e-09
5.52206e-06
7.49173e-09
5.56506e-06
3.95553e-08
5.61341e-06
6.05132e-08
5.65352e-06
7.18424e-08
5.6901e-06
7.25569e-08
5.7184e-06
6.65659e-08
5.73308e-06
6.06408e-08
5.73403e-06
5.78347e-08
5.72369e-06
5.95547e-08
5.70452e-06
6.69538e-08
5.67942e-06
8.04568e-08
5.65288e-06
9.85803e-08
5.63048e-06
1.17769e-07
5.61755e-06
1.33992e-07
5.61639e-06
1.46015e-07
5.6277e-06
1.52305e-07
1.58823e-07
5.64793e-06
6.01809e-06
-5.89033e-08
6.03735e-06
-1.17697e-08
6.04335e-06
3.35566e-08
6.03673e-06
6.71362e-08
6.02707e-06
8.14991e-08
6.01181e-06
8.78257e-08
5.98665e-06
9.17221e-08
5.95723e-06
9.00625e-08
5.93351e-06
8.15558e-08
5.92072e-06
7.23428e-08
5.91755e-06
7.01199e-08
5.92e-06
7.80119e-08
5.92604e-06
9.25407e-08
5.93556e-06
1.08244e-07
5.94987e-06
1.19688e-07
5.96966e-06
1.26226e-07
5.99374e-06
1.28219e-07
1.30225e-07
6.02234e-06
6.28413e-06
3.34408e-08
6.29732e-06
-2.49584e-08
6.34715e-06
-1.6279e-08
6.40191e-06
1.23831e-08
6.43965e-06
4.3754e-08
6.45437e-06
7.31124e-08
6.45597e-06
9.0122e-08
6.45637e-06
8.96549e-08
6.45909e-06
7.88408e-08
6.46229e-06
6.91414e-08
6.46585e-06
6.65601e-08
6.47311e-06
7.07488e-08
6.48755e-06
7.8102e-08
6.50968e-06
8.61165e-08
6.53519e-06
9.41809e-08
6.55831e-06
1.031e-07
6.57328e-06
1.13249e-07
1.25353e-07
6.57815e-06
5.74202e-06
-7.25767e-08
5.79511e-06
-7.80492e-08
5.82331e-06
-4.44759e-08
5.83869e-06
-3.00055e-09
5.83186e-06
5.05826e-08
5.81277e-06
9.22055e-08
5.8006e-06
1.02294e-07
5.80184e-06
8.84092e-08
5.8092e-06
7.14876e-08
5.81337e-06
6.49728e-08
5.81122e-06
6.87048e-08
5.8066e-06
7.53742e-08
5.80539e-06
7.9307e-08
5.81219e-06
7.93167e-08
5.82847e-06
7.79046e-08
5.85241e-06
7.91583e-08
5.88217e-06
8.34851e-08
9.39809e-08
5.91354e-06
6.95621e-06
1.51975e-08
6.95584e-06
-7.76881e-08
6.97488e-06
-6.35107e-08
7.00598e-06
-3.41041e-08
7.03639e-06
2.01778e-08
7.05369e-06
7.4898e-08
7.0583e-06
9.76899e-08
7.06303e-06
8.36779e-08
7.08172e-06
5.28016e-08
7.11722e-06
2.94676e-08
7.15888e-06
2.70513e-08
7.18996e-06
4.42862e-08
7.19888e-06
7.03882e-08
7.18464e-06
9.35553e-08
7.15721e-06
1.05333e-07
7.12976e-06
1.06614e-07
7.11388e-06
9.93688e-08
9.11421e-08
7.11671e-06
8.63879e-06
-3.78855e-08
8.58763e-06
-2.65303e-08
8.50982e-06
1.43008e-08
8.44197e-06
3.37453e-08
8.41963e-06
4.25198e-08
8.45759e-06
3.6932e-08
8.53753e-06
1.77557e-08
8.62457e-06
-3.36915e-09
8.69063e-06
-1.32501e-08
8.72611e-06
-6.01972e-09
8.73754e-06
1.5624e-08
8.7372e-06
4.46251e-08
8.73515e-06
7.24389e-08
8.73588e-06
9.28261e-08
8.73872e-06
1.02489e-07
8.74207e-06
1.03273e-07
8.74336e-06
9.80738e-08
9.27672e-08
8.74174e-06
1.04347e-05
2.44489e-08
1.039e-05
1.81802e-08
1.04148e-05
-1.05078e-08
1.04205e-05
2.80435e-08
1.03905e-05
7.25043e-08
1.03579e-05
6.95268e-08
1.03527e-05
2.29809e-08
1.03777e-05
-2.8396e-08
1.04148e-05
-5.03768e-08
1.0444e-05
-3.52025e-08
1.04576e-05
2.03218e-09
1.04614e-05
4.0815e-08
1.04673e-05
6.65622e-08
1.04845e-05
7.56411e-08
1.0515e-05
7.19471e-08
1.05553e-05
6.30204e-08
1.05986e-05
5.47082e-08
4.85137e-08
1.06429e-05
1.25368e-05
4.28335e-08
1.26436e-05
-8.85652e-08
1.27324e-05
-9.93272e-08
1.27621e-05
-1.67615e-09
1.27623e-05
7.23398e-08
1.27636e-05
6.82226e-08
1.27722e-05
1.44057e-08
1.2776e-05
-3.2207e-08
1.27666e-05
-4.09877e-08
1.27485e-05
-1.70639e-08
1.27326e-05
1.78595e-08
1.27277e-05
4.57801e-08
1.27351e-05
5.91429e-08
1.27516e-05
5.9152e-08
1.27719e-05
5.16715e-08
1.27921e-05
4.27566e-08
1.28108e-05
3.60056e-08
3.55094e-08
1.28238e-05
1.61249e-05
2.86608e-07
1.57991e-05
2.37286e-07
1.55989e-05
1.00857e-07
1.55305e-05
6.66658e-08
1.55326e-05
7.02381e-08
1.55466e-05
5.42431e-08
1.55495e-05
1.15183e-08
1.55505e-05
-3.31911e-08
1.55658e-05
-5.6337e-08
1.56015e-05
-5.27308e-08
1.56513e-05
-3.18933e-08
1.57043e-05
-7.21725e-09
1.57514e-05
1.2047e-08
1.57879e-05
2.25947e-08
1.58143e-05
2.53126e-08
1.58332e-05
2.37887e-08
1.58491e-05
2.01621e-08
1.33072e-08
1.58713e-05
1.85721e-05
-1.32721e-07
1.86652e-05
1.44134e-07
1.86822e-05
8.38575e-08
1.87541e-05
-5.1412e-09
1.88544e-05
-3.00691e-08
1.89435e-05
-3.48973e-08
1.90028e-05
-4.77758e-08
1.90361e-05
-6.6537e-08
1.90602e-05
-8.03477e-08
1.909e-05
-8.25348e-08
1.91296e-05
-7.15503e-08
1.91718e-05
-4.93746e-08
1.92048e-05
-2.09491e-08
1.92193e-05
8.03443e-09
1.92151e-05
2.95346e-08
1.9199e-05
3.98953e-08
1.91829e-05
3.62993e-08
2.27215e-08
1.91734e-05
2.35086e-05
-2.59358e-08
2.35451e-05
1.07631e-07
2.34866e-05
1.42331e-07
2.33552e-05
1.26264e-07
2.32194e-05
1.05737e-07
2.31043e-05
8.02401e-08
2.30184e-05
3.8093e-08
2.29641e-05
-1.22093e-08
2.29373e-05
-5.35266e-08
2.293e-05
-7.52794e-08
2.29342e-05
-7.5744e-08
2.29437e-05
-5.8886e-08
2.29555e-05
-3.27133e-08
2.29691e-05
-5.55248e-09
2.29848e-05
1.38559e-08
2.30037e-05
2.09366e-08
2.30257e-05
1.43566e-08
-5.40754e-09
2.30538e-05
1.67844e-05
1.64641e-07
1.67921e-05
9.99367e-08
1.68376e-05
9.68429e-08
1.68808e-05
8.30167e-08
1.69525e-05
3.40287e-08
1.70574e-05
-2.46354e-08
1.71601e-05
-6.46715e-08
1.72153e-05
-6.73669e-08
1.71986e-05
-3.68344e-08
1.71192e-05
4.16765e-09
1.70105e-05
3.28986e-08
1.69116e-05
4.00218e-08
1.68495e-05
2.93987e-08
1.68331e-05
1.08349e-08
1.68541e-05
-7.14359e-09
1.68966e-05
-2.15177e-08
1.69427e-05
-3.17903e-08
-4.1339e-08
1.69786e-05
1.47934e-05
-8.87185e-08
1.49252e-05
-3.18818e-08
1.49922e-05
2.98066e-08
1.50164e-05
5.88904e-08
1.50149e-05
3.54731e-08
1.50033e-05
-1.30417e-08
1.49815e-05
-4.28093e-08
1.49446e-05
-3.0479e-08
1.48978e-05
9.95311e-09
1.48569e-05
4.50584e-08
1.48387e-05
5.10412e-08
1.48523e-05
2.64685e-08
1.48957e-05
-1.39878e-08
1.49595e-05
-5.29991e-08
1.50308e-05
-7.83753e-08
1.50967e-05
-8.74888e-08
1.51473e-05
-8.23574e-08
-6.89823e-08
1.51749e-05
1.29045e-05
1.73833e-07
1.28295e-05
4.31071e-08
1.27681e-05
9.11693e-08
1.27605e-05
6.65034e-08
1.2824e-05
-2.80076e-08
1.28997e-05
-8.87266e-08
1.29334e-05
-7.65574e-08
1.29235e-05
-2.05063e-08
1.29074e-05
2.59949e-08
1.2921e-05
3.14609e-08
1.29722e-05
-1.2048e-10
1.30431e-05
-4.44399e-08
1.31065e-05
-7.74389e-08
1.31408e-05
-8.72197e-08
1.31383e-05
-7.58726e-08
1.31043e-05
-5.3524e-08
1.30522e-05
-3.02852e-08
-1.69165e-08
1.30002e-05
1.11088e-05
-6.23903e-08
1.11435e-05
8.45422e-09
1.11828e-05
5.18183e-08
1.12569e-05
-7.56946e-09
1.13162e-05
-8.72944e-08
1.13287e-05
-1.01227e-07
1.13015e-05
-4.94346e-08
1.12678e-05
1.32112e-08
1.12531e-05
4.06829e-08
1.12598e-05
2.47495e-08
1.12753e-05
-1.55275e-08
1.12862e-05
-5.53377e-08
1.12862e-05
-7.74565e-08
1.12761e-05
-7.71809e-08
1.12609e-05
-6.06588e-08
1.12464e-05
-3.90258e-08
1.12378e-05
-2.16721e-08
-1.30161e-08
1.12339e-05
9.53399e-06
-3.92971e-08
9.55013e-06
-7.67867e-09
9.6151e-06
-1.31537e-08
9.65887e-06
-5.13394e-08
9.64674e-06
-7.51684e-08
9.62203e-06
-7.65175e-08
9.62933e-06
-5.67369e-08
9.67102e-06
-2.84787e-08
9.71993e-06
-8.22356e-09
9.7504e-06
-5.72387e-09
9.75583e-06
-2.09571e-08
9.74662e-06
-4.61229e-08
9.73879e-06
-6.96271e-08
9.74369e-06
-8.20763e-08
9.76354e-06
-8.05145e-08
9.79316e-06
-6.8647e-08
9.82386e-06
-5.23667e-08
-3.72127e-08
9.84805e-06
8.41333e-06
-7.0166e-08
8.45046e-06
-4.48114e-08
8.49244e-06
-5.51348e-08
8.49637e-06
-5.52687e-08
8.46405e-06
-4.28471e-08
8.42893e-06
-4.13999e-08
8.41638e-06
-4.41893e-08
8.4321e-06
-4.41914e-08
8.46676e-06
-4.28817e-08
8.50445e-06
-4.34195e-08
8.52972e-06
-4.62257e-08
8.5329e-06
-4.9308e-08
8.51363e-06
-5.03499e-08
8.47917e-06
-4.76174e-08
8.44069e-06
-4.20314e-08
8.40795e-06
-3.59154e-08
8.38772e-06
-3.2136e-08
-3.32371e-08
8.38375e-06
7.38029e-06
-5.32619e-08
7.34472e-06
-9.24793e-09
7.29314e-06
-3.55493e-09
7.26679e-06
-2.89157e-08
7.28668e-06
-6.27394e-08
7.32846e-06
-8.31758e-08
7.36564e-06
-8.13676e-08
7.3926e-06
-7.11572e-08
7.41745e-06
-6.7724e-08
7.44546e-06
-7.14345e-08
7.47152e-06
-7.22818e-08
7.48495e-06
-6.27424e-08
7.47905e-06
-4.44459e-08
7.45635e-06
-2.49229e-08
7.42668e-06
-1.2359e-08
7.40109e-06
-1.03277e-08
7.38782e-06
-1.88594e-08
-3.33897e-08
7.38797e-06
6.34983e-06
1.02842e-07
6.31611e-06
2.44752e-08
6.33367e-06
-2.11165e-08
6.35248e-06
-4.77286e-08
6.37618e-06
-8.64365e-08
6.40587e-06
-1.12862e-07
6.4362e-06
-1.11697e-07
6.46068e-06
-9.56378e-08
6.47515e-06
-8.21963e-08
6.47968e-06
-7.59686e-08
6.47762e-06
-7.02215e-08
6.47324e-06
-5.83637e-08
6.46991e-06
-4.11112e-08
6.46965e-06
-2.46591e-08
6.47296e-06
-1.56774e-08
6.47928e-06
-1.66441e-08
6.48671e-06
-2.62886e-08
-4.08575e-08
6.49418e-06
5.65017e-06
1.78843e-07
5.62648e-06
4.8165e-08
5.6415e-06
-3.61285e-08
5.67426e-06
-8.04931e-08
5.68836e-06
-1.00536e-07
5.66871e-06
-9.32162e-08
5.63446e-06
-7.74416e-08
5.60848e-06
-6.96621e-08
5.59666e-06
-7.03755e-08
5.59266e-06
-7.19626e-08
5.59085e-06
-6.84162e-08
5.59174e-06
-5.92493e-08
5.59874e-06
-4.81167e-08
5.61329e-06
-3.92081e-08
5.63256e-06
-3.49487e-08
5.65141e-06
-3.54918e-08
5.6646e-06
-3.94783e-08
-4.50446e-08
5.66879e-06
4.85933e-06
7.1112e-08
4.91092e-06
-3.42269e-09
4.93553e-06
-6.07385e-08
4.94909e-06
-9.40565e-08
4.93685e-06
-8.82897e-08
4.90951e-06
-6.58764e-08
4.88699e-06
-5.49223e-08
4.87648e-06
-5.91517e-08
4.87288e-06
-6.6776e-08
4.86973e-06
-6.88108e-08
4.86586e-06
-6.45515e-08
4.86429e-06
-5.76819e-08
4.8678e-06
-5.16254e-08
4.87601e-06
-4.74132e-08
4.88567e-06
-4.4612e-08
4.89275e-06
-4.2571e-08
4.8942e-06
-4.09256e-08
-4.12342e-08
4.89039e-06
4.14171e-06
4.13828e-06
4.07754e-06
3.98349e-06
3.8952e-06
3.82932e-06
3.7744e-06
3.71525e-06
3.64847e-06
3.57966e-06
3.51511e-06
3.45743e-06
3.4058e-06
3.35839e-06
3.31378e-06
3.27121e-06
3.23028e-06
3.18905e-06
-2.05129e-07
2.05129e-07
-4.12912e-07
2.07782e-07
-6.06159e-07
1.93247e-07
-7.29153e-07
1.22994e-07
-7.4186e-07
1.27072e-08
-6.57195e-07
-8.46655e-08
-5.04264e-07
-1.52931e-07
-3.13253e-07
-1.91011e-07
-1.10616e-07
-2.02637e-07
8.66277e-08
-1.97244e-07
2.69589e-07
-1.82961e-07
4.34453e-07
-1.64864e-07
5.79434e-07
-1.44982e-07
7.03571e-07
-1.24137e-07
8.06902e-07
-1.03331e-07
8.9014e-07
-8.32374e-08
9.53706e-07
-6.35668e-08
9.97547e-07
-4.38411e-08
1.02105e-06
-2.35013e-08
1.02266e-06
-1.6066e-09
1.00001e-06
2.26477e-08
9.50993e-07
4.90145e-08
8.72252e-07
7.87409e-08
7.64503e-07
1.07749e-07
6.10095e-07
1.54408e-07
4.20506e-07
1.89589e-07
2.88719e-07
1.31787e-07
2.38193e-07
5.05258e-08
2.37626e-07
5.67135e-10
2.9875e-07
-6.11241e-08
4.16185e-07
-1.17435e-07
5.4145e-07
-1.25264e-07
6.5804e-07
-1.16591e-07
7.5813e-07
-1.00089e-07
8.62476e-07
-1.04347e-07
1.01397e-06
-1.51496e-07
1.22289e-06
-2.08915e-07
1.46296e-06
-2.40069e-07
1.69281e-06
-2.29852e-07
1.86892e-06
-1.76116e-07
1.97675e-06
-1.07822e-07
2.04237e-06
-6.56265e-08
2.09427e-06
-5.18971e-08
2.12891e-06
-3.46422e-08
2.13054e-06
-1.62854e-09
2.109e-06
2.15413e-08
2.09361e-06
1.53939e-08
2.10426e-06
-1.06547e-08
2.13982e-06
-3.55566e-08
2.18233e-06
-4.25124e-08
2.20632e-06
-2.39913e-08
2.18574e-06
2.05761e-08
2.10126e-06
8.44854e-08
1.94857e-06
1.52691e-07
1.74195e-06
2.06617e-07
1.51435e-06
2.276e-07
1.32445e-06
1.89906e-07
1.25207e-06
7.23762e-08
1.35973e-06
-1.07658e-07
1.49835e-06
-1.38621e-07
1.48093e-06
1.74194e-08
1.21919e-06
2.61743e-07
7.12985e-07
5.062e-07
-3.89881e-09
7.16884e-07
-7.94327e-07
7.90428e-07
-1.42471e-06
6.30379e-07
-1.99328e-06
5.68572e-07
-2.48814e-06
4.94858e-07
-2.91172e-06
4.23583e-07
-3.32309e-06
4.1137e-07
-3.70874e-06
3.85646e-07
-4.0701e-06
3.61363e-07
-4.41506e-06
3.44962e-07
-4.74277e-06
3.27709e-07
-5.05172e-06
3.08948e-07
-5.33871e-06
2.8699e-07
-5.59944e-06
2.60736e-07
-5.82885e-06
2.29408e-07
-6.02222e-06
1.9337e-07
-6.17471e-06
1.52484e-07
-6.28071e-06
1.06007e-07
-6.33503e-06
5.43162e-08
-6.33422e-06
-8.03875e-10
-6.27769e-06
-5.65388e-08
-6.1667e-06
-1.10982e-07
-6.00381e-06
-1.62895e-07
-5.79319e-06
-2.10619e-07
-5.53998e-06
-2.53209e-07
-5.2493e-06
-2.90684e-07
-4.9252e-06
-3.241e-07
-4.5702e-06
-3.54993e-07
-4.18484e-06
-3.8536e-07
-3.76624e-06
-4.18604e-07
-3.30585e-06
-4.60392e-07
-2.78663e-06
-5.19213e-07
-2.17988e-06
-6.06751e-07
-1.44442e-06
-7.35463e-07
-5.37349e-07
-9.07071e-07
5.52201e-07
-1.08955e-06
1.74078e-06
-1.18858e-06
2.80697e-06
-1.06619e-06
3.44645e-06
-6.39478e-07
3.40804e-06
3.84118e-08
2.62649e-06
7.81545e-07
1.34192e-06
1.28457e-06
2.00981e-07
1.14093e-06
-1.18056e-06
1.38154e-06
-3.777e-06
2.59643e-06
-7.41777e-06
3.64077e-06
-9.96838e-06
2.55062e-06
-1.16678e-05
1.69944e-06
-1.28685e-05
1.2007e-06
-1.34948e-05
6.26298e-07
-1.39e-05
4.05181e-07
-1.40397e-05
1.39697e-07
-1.4052e-05
1.23506e-08
-1.39402e-05
-1.11828e-07
-1.37384e-05
-2.01843e-07
-1.34587e-05
-2.79694e-07
-1.31051e-05
-3.53558e-07
-1.26925e-05
-4.12644e-07
-1.22234e-05
-4.69048e-07
-1.17105e-05
-5.12901e-07
-1.1159e-05
-5.51556e-07
-1.05769e-05
-5.82066e-07
-9.96685e-06
-6.10052e-07
-9.32458e-06
-6.42276e-07
-8.63559e-06
-6.88993e-07
-7.87676e-06
-7.5882e-07
-7.02542e-06
-8.51341e-07
-6.06962e-06
-9.55806e-07
-5.01894e-06
-1.05068e-06
-3.90707e-06
-1.11187e-06
-2.78328e-06
-1.12379e-06
-1.69991e-06
-1.08338e-06
-7.03834e-07
-9.96071e-07
1.68402e-07
-8.72236e-07
9.01444e-07
-7.33043e-07
1.51303e-06
-6.11584e-07
2.0415e-06
-5.2847e-07
2.52426e-06
-4.82761e-07
2.98535e-06
-4.61094e-07
3.43236e-06
-4.47007e-07
3.86225e-06
-4.29886e-07
4.27148e-06
-4.09235e-07
4.66317e-06
-3.9169e-07
5.04792e-06
-3.84744e-07
5.44045e-06
-3.92535e-07
5.85418e-06
-4.13725e-07
6.29598e-06
-4.41802e-07
6.76401e-06
-4.68032e-07
7.24755e-06
-4.83537e-07
7.73027e-06
-4.82728e-07
8.1916e-06
-4.61325e-07
8.60798e-06
-4.1638e-07
8.96077e-06
-3.52792e-07
9.24464e-06
-2.83868e-07
9.43836e-06
-1.93724e-07
9.46514e-06
-2.67725e-08
9.27609e-06
1.89049e-07
8.86375e-06
4.12338e-07
8.28824e-06
5.75511e-07
7.60831e-06
6.79927e-07
6.78332e-06
8.24995e-07
5.93223e-06
8.51087e-07
4.64527e-06
1.28696e-06
2.69559e-06
1.94968e-06
9.29208e-07
1.76638e-06
-1.69918e-07
1.09913e-06
-5.46147e-07
3.76229e-07
-7.16087e-07
1.6994e-07
-9.83835e-07
2.67748e-07
-1.1593e-06
1.75461e-07
-1.20491e-06
4.561e-08
-1.12932e-06
-7.55844e-08
-9.153e-07
-2.14021e-07
-6.3053e-07
-2.8477e-07
-3.59668e-07
-2.70862e-07
-1.38564e-07
-2.21104e-07
-1.58962e-07
2.03979e-08
-1.47707e-07
3.52837e-07
-3.08603e-07
3.68678e-07
-4.22071e-07
3.06715e-07
-4.57898e-07
1.58822e-07
-4.12084e-07
-3.31073e-08
-2.98276e-07
-1.98473e-07
-1.39549e-07
-3.11658e-07
3.68114e-08
-3.67371e-07
2.14818e-07
-3.80643e-07
3.85177e-07
-3.67603e-07
5.42508e-07
-3.40293e-07
6.83844e-07
-3.06199e-07
8.08465e-07
-2.69603e-07
9.17155e-07
-2.32826e-07
1.0109e-06
-1.97074e-07
1.09072e-06
-1.6306e-07
1.15812e-06
-1.30969e-07
1.21487e-06
-1.00589e-07
1.26253e-06
-7.11571e-08
1.30344e-06
-4.25191e-08
1.3386e-06
-1.25096e-08
1.36928e-06
1.83334e-08
1.39402e-06
5.39931e-08
1.41252e-06
8.92518e-08
1.44392e-06
1.23004e-07
1.47734e-06
1.56175e-07
1.46066e-06
1.48469e-07
1.36823e-06
1.42957e-07
1.19609e-06
1.727e-07
9.63579e-07
1.71389e-07
7.39954e-07
1.06189e-07
6.1902e-07
-4.32998e-09
6.22434e-07
-1.20005e-07
7.00003e-07
-1.77658e-07
8.26455e-07
-2.30799e-07
1.00817e-06
-3.33211e-07
1.19965e-06
-4.00393e-07
1.3338e-06
-3.74218e-07
1.38513e-06
-2.81185e-07
1.38382e-06
-1.74802e-07
1.37893e-06
-1.02933e-07
1.38872e-06
-7.54213e-08
1.4142e-06
-7.73765e-08
1.46967e-06
-9.01108e-08
1.56983e-06
-1.01789e-07
1.70518e-06
-1.13811e-07
1.85308e-06
-1.32507e-07
1.9975e-06
-1.55067e-07
2.12739e-06
-1.65452e-07
2.22936e-06
-1.44485e-07
2.28791e-06
-8.25352e-08
2.29346e-06
1.50218e-08
2.24283e-06
1.35119e-07
2.12919e-06
2.6633e-07
1.9508e-06
3.85007e-07
1.72133e-06
4.57073e-07
1.46337e-06
4.47858e-07
1.2354e-06
3.00346e-07
9.5606e-07
1.71686e-07
4.5653e-07
3.6091e-07
-2.47032e-07
7.20982e-07
-1.02906e-06
1.04377e-06
-1.76218e-06
1.23932e-06
-2.32767e-06
1.28237e-06
-2.75156e-06
1.21432e-06
-3.20309e-06
1.08191e-06
-3.63088e-06
9.9636e-07
-4.03058e-06
8.94554e-07
-4.43948e-06
8.32484e-07
-4.83421e-06
8.06106e-07
-5.21804e-06
7.69477e-07
-5.59023e-06
7.33554e-07
-5.94225e-06
6.96981e-07
-6.2746e-06
6.60059e-07
-6.58398e-06
6.18324e-07
-6.86172e-06
5.64728e-07
-7.10107e-06
5.00087e-07
-7.29866e-06
4.27002e-07
-7.45056e-06
3.45263e-07
-7.55157e-06
2.53497e-07
-7.59906e-06
1.53503e-07
-7.59416e-06
4.94105e-08
-7.53902e-06
-5.5938e-08
-7.43447e-06
-1.61093e-07
-7.28215e-06
-2.63302e-07
-7.086e-06
-3.59045e-07
-6.8502e-06
-4.46423e-07
-6.57855e-06
-5.24859e-07
-6.27481e-06
-5.94419e-07
-5.94281e-06
-6.56102e-07
-5.58527e-06
-7.12529e-07
-5.20221e-06
-7.68427e-07
-4.78964e-06
-8.3117e-07
-4.33809e-06
-9.11941e-07
-3.83008e-06
-1.02723e-06
-3.23777e-06
-1.19906e-06
-2.52394e-06
-1.4493e-06
-1.65238e-06
-1.77863e-06
-6.21117e-07
-2.12081e-06
4.81338e-07
-2.29103e-06
1.43314e-06
-2.01799e-06
1.94581e-06
-1.15215e-06
1.8722e-06
1.12027e-07
1.27115e-06
1.38259e-06
1.43451e-07
2.41227e-06
-2.05024e-06
3.33463e-06
-5.6666e-06
4.9979e-06
-9.10994e-06
6.03977e-06
-1.06249e-05
5.15573e-06
-1.14646e-05
3.39031e-06
-1.21264e-05
2.36129e-06
-1.24839e-05
1.55812e-06
-1.27607e-05
9.03131e-07
-1.29155e-05
5.59965e-07
-1.29638e-05
1.87974e-07
-1.29312e-05
-2.02048e-08
-1.27953e-05
-2.4774e-07
-1.25811e-05
-4.16017e-07
-1.22864e-05
-5.74408e-07
-1.19267e-05
-7.13244e-07
-1.15073e-05
-8.32034e-07
-1.10374e-05
-9.39016e-07
-1.05265e-05
-1.02376e-06
-9.98188e-06
-1.09618e-06
-9.41158e-06
-1.15236e-06
-8.81847e-06
-1.20316e-06
-8.19969e-06
-1.26106e-06
-7.54091e-06
-1.34777e-06
-6.81622e-06
-1.48351e-06
-5.9959e-06
-1.67166e-06
-5.05993e-06
-1.89177e-06
-4.01291e-06
-2.0977e-06
-2.89058e-06
-2.2342e-06
-1.74593e-06
-2.26844e-06
-6.35503e-07
-2.19381e-06
3.8272e-07
-2.01429e-06
1.26548e-06
-1.755e-06
2.00657e-06
-1.47413e-06
2.62699e-06
-1.232e-06
3.16173e-06
-1.06321e-06
3.64818e-06
-9.69213e-07
4.11169e-06
-9.24603e-07
4.55975e-06
-8.95074e-07
4.98812e-06
-8.58252e-07
5.39221e-06
-8.13325e-07
5.77522e-06
-7.747e-07
6.14914e-06
-7.58668e-07
6.53001e-06
-7.73401e-07
6.93192e-06
-8.15637e-07
7.36275e-06
-8.72629e-07
7.82182e-06
-9.27108e-07
8.29793e-06
-9.59646e-07
8.76875e-06
-9.53542e-07
9.21127e-06
-9.03848e-07
9.61089e-06
-8.16002e-07
9.94815e-06
-6.90051e-07
1.01732e-05
-5.08873e-07
1.02592e-05
-2.7973e-07
1.02507e-05
-1.82681e-08
1.0191e-05
2.48714e-07
1.00809e-05
5.22401e-07
9.86394e-06
7.92503e-07
9.53838e-06
1.00548e-06
9.05435e-06
1.30903e-06
8.38053e-06
1.52491e-06
7.68295e-06
1.98455e-06
6.69532e-06
2.93731e-06
5.13692e-06
3.32478e-06
3.30701e-06
2.92903e-06
1.58308e-06
2.10016e-06
4.22309e-07
1.33071e-06
-5.22189e-08
7.42276e-07
-1.77407e-07
3.00649e-07
-2.23207e-07
9.14098e-08
-1.94545e-07
-1.04246e-07
-5.08305e-08
-3.57735e-07
1.45318e-07
-4.80918e-07
3.42258e-07
-4.67803e-07
5.1413e-07
-3.92976e-07
-2.86835e-07
6.42003e-07
-2.7817e-08
3.80654e-07
-8.12796e-08
4.2214e-07
-1.26175e-07
3.5161e-07
-1.16282e-07
1.4893e-07
-4.06881e-08
-1.08702e-07
8.01088e-08
-3.1927e-07
2.15585e-07
-4.47135e-07
3.49653e-07
-5.0144e-07
4.75233e-07
-5.06223e-07
5.90534e-07
-4.82904e-07
6.95101e-07
-4.44859e-07
7.88539e-07
-3.99638e-07
8.70387e-07
-3.51451e-07
9.40564e-07
-3.03003e-07
9.99642e-07
-2.56151e-07
1.04877e-06
-2.12184e-07
1.08969e-06
-1.71896e-07
1.12483e-06
-1.35723e-07
1.15721e-06
-1.0354e-07
1.18927e-06
-7.45822e-08
1.22521e-06
-4.84443e-08
1.2679e-06
-2.43552e-08
1.32235e-06
-4.59316e-10
1.38838e-06
2.32182e-08
1.46337e-06
4.80191e-08
1.54207e-06
7.74712e-08
1.58459e-06
1.05953e-07
1.59367e-06
1.33879e-07
1.6126e-06
1.53762e-07
1.60706e-06
1.76934e-07
1.50542e-06
2.07831e-07
1.33104e-06
1.7005e-07
1.16988e-06
4.11559e-08
1.08781e-06
-9.55876e-08
1.10572e-06
-2.48712e-07
1.17258e-06
-4.00073e-07
1.18268e-06
-4.1049e-07
1.09435e-06
-2.85887e-07
9.79657e-07
-1.66495e-07
9.29609e-07
-1.24754e-07
9.76209e-07
-1.49533e-07
1.10005e-06
-1.99259e-07
1.26486e-06
-2.42185e-07
1.44041e-06
-2.65663e-07
1.60616e-06
-2.67542e-07
1.75505e-06
-2.62695e-07
1.9043e-06
-2.81762e-07
2.07105e-06
-3.21812e-07
2.24224e-06
-3.36644e-07
2.37908e-06
-2.81329e-07
2.44332e-06
-1.46772e-07
2.40933e-06
4.90065e-08
2.2757e-06
2.68755e-07
2.05952e-06
4.82506e-07
1.76995e-06
6.74574e-07
1.41015e-06
8.16881e-07
9.92622e-07
8.65383e-07
4.92037e-07
8.0093e-07
-2.26554e-07
8.90277e-07
-1.05318e-06
1.18753e-06
-1.7848e-06
1.45261e-06
-2.36709e-06
1.62605e-06
-2.76839e-06
1.64063e-06
-3.02215e-06
1.53612e-06
-3.25432e-06
1.4465e-06
-3.57077e-06
1.39836e-06
-3.92235e-06
1.34794e-06
-4.30099e-06
1.27319e-06
-4.7014e-06
1.23289e-06
-5.09897e-06
1.20368e-06
-5.48972e-06
1.16023e-06
-5.86529e-06
1.10913e-06
-6.2195e-06
1.05119e-06
-6.55204e-06
9.92607e-07
-6.8567e-06
9.22977e-07
-7.12547e-06
8.33501e-07
-7.35494e-06
7.29551e-07
-7.54107e-06
6.13139e-07
-7.67699e-06
4.81183e-07
-7.75848e-06
3.34989e-07
-7.78524e-06
1.80263e-07
-7.75727e-06
2.14313e-08
-7.67447e-06
-1.38733e-07
-7.5393e-06
-2.9626e-07
-7.35672e-06
-4.45888e-07
-7.13213e-06
-5.83629e-07
-6.87097e-06
-7.0758e-07
-6.57889e-06
-8.16938e-07
-6.26173e-06
-9.1158e-07
-5.92493e-06
-9.92907e-07
-5.57292e-06
-1.06453e-06
-5.2089e-06
-1.13245e-06
-4.83416e-06
-1.20591e-06
-4.44655e-06
-1.29955e-06
-4.03813e-06
-1.43565e-06
-3.59269e-06
-1.6445e-06
-3.08483e-06
-1.95716e-06
-2.48699e-06
-2.37647e-06
-1.79705e-06
-2.81075e-06
-1.0845e-06
-3.00358e-06
-5.15603e-07
-2.58688e-06
-3.06928e-07
-1.36083e-06
-6.30063e-07
4.35162e-07
-1.62522e-06
2.37775e-06
-3.53561e-06
4.32266e-06
-6.39441e-06
6.19344e-06
-8.94999e-06
7.55348e-06
-1.00806e-05
7.17037e-06
-1.01259e-05
5.20105e-06
-1.0336e-05
3.60035e-06
-1.06512e-05
2.67651e-06
-1.08897e-05
1.79667e-06
-1.1166e-05
1.17938e-06
-1.13158e-05
7.09808e-07
-1.13909e-05
2.63067e-07
-1.13595e-05
-5.16395e-08
-1.12347e-05
-3.72539e-07
-1.10282e-05
-6.22479e-07
-1.07413e-05
-8.61319e-07
-1.03889e-05
-1.06568e-06
-9.9765e-06
-1.24441e-06
-9.51878e-06
-1.39674e-06
-9.02701e-06
-1.51553e-06
-8.51441e-06
-1.60878e-06
-7.99072e-06
-1.67605e-06
-7.46208e-06
-1.7318e-06
-6.92802e-06
-1.79512e-06
-6.3753e-06
-1.90049e-06
-5.77297e-06
-2.08585e-06
-5.07688e-06
-2.36775e-06
-4.24861e-06
-2.72004e-06
-3.27953e-06
-3.06679e-06
-2.20667e-06
-3.30705e-06
-1.08792e-06
-3.38719e-06
1.80948e-08
-3.29982e-06
1.05352e-06
-3.04972e-06
1.97476e-06
-2.67624e-06
2.76113e-06
-2.26049e-06
3.42147e-06
-1.89234e-06
3.99013e-06
-1.63187e-06
4.50886e-06
-1.48794e-06
5.0075e-06
-1.42324e-06
5.4941e-06
-1.38167e-06
5.95966e-06
-1.32381e-06
6.39225e-06
-1.24592e-06
6.78925e-06
-1.1717e-06
7.16071e-06
-1.13013e-06
7.52516e-06
-1.13785e-06
7.90247e-06
-1.19295e-06
8.30764e-06
-1.2778e-06
8.74643e-06
-1.3659e-06
9.21235e-06
-1.42557e-06
9.68604e-06
-1.42723e-06
1.01446e-05
-1.36239e-06
1.05722e-05
-1.2436e-06
1.09528e-05
-1.07066e-06
1.12325e-05
-7.88554e-07
1.1315e-05
-3.62276e-07
1.11548e-05
1.41935e-07
1.08093e-05
5.94187e-07
1.04108e-05
9.2089e-07
1.00167e-05
1.18662e-06
9.62298e-06
1.39923e-06
9.22033e-06
1.71168e-06
8.68453e-06
2.06071e-06
8.23839e-06
2.43068e-06
7.93399e-06
3.24171e-06
7.29764e-06
3.96113e-06
6.32096e-06
3.90571e-06
5.19243e-06
3.22869e-06
4.08207e-06
2.44107e-06
3.07399e-06
1.75035e-06
2.18983e-06
1.18481e-06
1.58863e-06
6.92612e-07
1.32299e-06
1.61398e-07
1.22343e-06
-2.58182e-07
1.16032e-06
-4.17803e-07
1.12596e-06
-4.33446e-07
1.12723e-06
-3.9424e-07
-3.23482e-07
1.16387e-06
6.5452e-08
3.15202e-07
7.22085e-08
4.15384e-07
8.99653e-08
3.33853e-07
1.8144e-07
5.74551e-08
3.14932e-07
-2.42194e-07
4.51041e-07
-4.55379e-07
5.70313e-07
-5.66406e-07
6.70769e-07
-6.01896e-07
7.56938e-07
-5.92392e-07
8.33096e-07
-5.59062e-07
9.01437e-07
-5.132e-07
9.62104e-07
-4.60305e-07
1.0141e-06
-4.03448e-07
1.05626e-06
-3.45164e-07
1.08796e-06
-2.87854e-07
1.10942e-06
-2.33637e-07
1.12181e-06
-1.84289e-07
1.12695e-06
-1.40862e-07
1.12773e-06
-1.04317e-07
1.12755e-06
-7.44025e-08
1.13072e-06
-5.1615e-08
1.14039e-06
-3.40244e-08
1.16046e-06
-2.05347e-08
1.19344e-06
-9.76101e-09
1.23825e-06
3.20492e-09
1.30101e-06
1.47196e-08
1.37559e-06
3.13689e-08
1.4515e-06
5.79724e-08
1.52164e-06
8.36188e-08
1.56845e-06
1.30119e-07
1.58552e-06
1.90763e-07
1.55158e-06
2.03996e-07
1.43863e-06
1.54098e-07
1.31153e-06
3.15166e-08
1.24017e-06
-1.77353e-07
1.18417e-06
-3.44073e-07
1.09169e-06
-3.18003e-07
9.88417e-07
-1.8262e-07
9.46627e-07
-1.24705e-07
1.00407e-06
-1.82197e-07
1.13467e-06
-2.80136e-07
1.29024e-06
-3.54826e-07
1.43335e-06
-3.85296e-07
1.54391e-06
-3.76227e-07
1.63442e-06
-3.5805e-07
1.76655e-06
-3.94822e-07
1.99214e-06
-5.07355e-07
2.27845e-06
-6.08118e-07
2.54105e-06
-5.99242e-07
2.70196e-06
-4.42238e-07
2.73059e-06
-1.75402e-07
2.63116e-06
1.48436e-07
2.4e-06
4.99908e-07
2.05135e-06
8.31163e-07
1.60153e-06
1.12439e-06
1.06041e-06
1.358e-06
4.59671e-07
1.46612e-06
-2.44306e-07
1.50491e-06
-1.03801e-06
1.68398e-06
-1.71397e-06
1.8635e-06
-2.20635e-06
1.94499e-06
-2.56048e-06
1.98018e-06
-2.82106e-06
1.90121e-06
-3.05711e-06
1.77217e-06
-3.32938e-06
1.71877e-06
-3.65725e-06
1.72623e-06
-4.02367e-06
1.71435e-06
-4.42026e-06
1.66978e-06
-4.82347e-06
1.63611e-06
-5.22071e-06
1.60092e-06
-5.61204e-06
1.55156e-06
-5.98915e-06
1.48624e-06
-6.34941e-06
1.41144e-06
-6.68974e-06
1.33294e-06
-7.00017e-06
1.23341e-06
-7.27552e-06
1.10885e-06
-7.51197e-06
9.66002e-07
-7.70044e-06
8.01607e-07
-7.83402e-06
6.14768e-07
-7.91095e-06
4.11917e-07
-7.92984e-06
1.99149e-07
-7.88942e-06
-1.89864e-08
-7.79104e-06
-2.37115e-07
-7.63872e-06
-4.48574e-07
-7.43752e-06
-6.47091e-07
-7.19291e-06
-8.28241e-07
-6.91129e-06
-9.892e-07
-6.59992e-06
-1.1283e-06
-6.2662e-06
-1.24531e-06
-5.91716e-06
-1.34194e-06
-5.55973e-06
-1.42196e-06
-5.20128e-06
-1.4909e-06
-4.85019e-06
-1.557e-06
-4.51626e-06
-1.63348e-06
-4.21024e-06
-1.74168e-06
-3.94131e-06
-1.91342e-06
-3.71251e-06
-2.18596e-06
-3.51899e-06
-2.56999e-06
-3.35832e-06
-2.97142e-06
-3.25572e-06
-3.10619e-06
-3.28853e-06
-2.55407e-06
-3.58965e-06
-1.05971e-06
-4.34159e-06
1.18711e-06
-5.69085e-06
3.72701e-06
-7.49622e-06
6.12803e-06
-9.17204e-06
7.86926e-06
-9.79019e-06
8.17162e-06
-9.41212e-06
6.79231e-06
-9.11818e-06
4.90712e-06
-9.27208e-06
3.75425e-06
-9.46677e-06
2.8712e-06
-9.69157e-06
2.02147e-06
-9.92383e-06
1.41164e-06
-1.00531e-05
8.39117e-07
-1.01157e-05
3.25666e-07
-1.00705e-05
-9.69036e-08
-9.9378e-06
-5.05212e-07
-9.71362e-06
-8.46657e-07
-9.40634e-06
-1.1686e-06
-9.02311e-06
-1.44891e-06
-8.57292e-06
-1.6946e-06
-8.07295e-06
-1.89671e-06
-7.5417e-06