/*--------------------------------*- C++ -*----------------------------------*\
  =========                 |
  \\      /  F ield         | OpenFOAM: The Open Source CFD Toolbox
   \\    /   O peration     | Website:  https://openfoam.org
    \\  /    A nd           | Version:  6
     \\/     M anipulation  |
\*---------------------------------------------------------------------------*/
FoamFile
{
    version     2.0;
    format      ascii;
    class       volScalarField;
    location    "0.1";
    object      pMean;
}
// * * * * * * * * * * * * * * * * * * * * * * * * * * * * * * * * * * * * * //

dimensions      [0 2 -2 0 0 0 0];

internalField   nonuniform List<scalar> 
12225
(
7.29987
6.68806
6.23811
5.98738
5.84236
5.72826
5.61817
5.51204
5.41635
5.33482
5.26886
5.21673
5.17787
5.14418
5.10837
5.0306
4.86738
4.44711
7.15943
6.64845
6.22133
5.97174
5.82643
5.71369
5.60512
5.49989
5.40414
5.32225
5.25477
5.20121
5.15793
5.12109
5.07484
4.99746
4.82995
4.5381
7.0262
6.616
6.22145
5.97029
5.82061
5.70723
5.59941
5.49408
5.39723
5.31312
5.24277
5.18439
5.13479
5.08734
5.02946
4.93987
4.78797
4.567
6.91216
6.58146
6.22129
5.96807
5.81135
5.69586
5.58845
5.48307
5.38478
5.29813
5.224
5.16028
5.10295
5.04493
4.97528
4.87787
4.73891
4.5526
6.81172
6.54021
6.2144
5.96262
5.7994
5.68151
5.57475
5.46977
5.37035
5.2811
5.20299
5.13371
5.06877
5.00148
4.92271
4.82201
4.6913
4.52813
6.70929
6.48879
6.19725
5.95243
5.78529
5.6651
5.55889
5.45455
5.35421
5.2623
5.18
5.10501
5.03287
4.95751
4.87198
4.76917
4.6441
4.49598
6.61036
6.43108
6.17105
5.93764
5.76933
5.64663
5.54012
5.43606
5.33471
5.24
5.15331
5.07259
4.99367
4.91137
4.82028
4.71544
4.59362
4.4547
6.53737
6.377
6.14239
5.92229
5.75474
5.62914
5.52108
5.41646
5.31379
5.21613
5.12494
5.03856
4.95331
4.86479
4.76877
4.66159
4.54104
4.40681
6.4782
6.3241
6.10909
5.90279
5.73788
5.60979
5.49953
5.39383
5.28974
5.18927
5.09379
5.00207
4.91104
4.81701
4.71653
4.60685
4.48624
4.35412
6.41153
6.26729
6.06968
5.87695
5.71638
5.58689
5.4744
5.36727
5.26166
5.15857
5.0591
4.96243
4.86607
4.76699
4.66239
4.55009
4.42865
4.29744
6.33472
6.20731
6.02646
5.84664
5.69184
5.56243
5.44807
5.33917
5.23177
5.12606
5.02283
4.92153
4.82021
4.71642
4.60783
4.49272
4.36984
4.2387
6.26178
6.15168
5.98468
5.81539
5.66626
5.53788
5.42224
5.31164
5.20247
5.09447
4.98812
4.88299
4.77756
4.66985
4.55794
4.44042
4.31619
4.18482
6.20287
6.10079
5.94329
5.78247
5.6384
5.51126
5.39448
5.28197
5.17076
5.0604
4.95109
4.84247
4.73334
4.62213
4.50726
4.38758
4.2622
4.13079
6.15942
6.05137
5.89913
5.74579
5.60673
5.48096
5.36293
5.24809
5.13431
5.02115
4.90859
4.79626
4.68324
4.56835
4.45042
4.32851
4.20193
4.07034
6.10166
5.99219
5.84496
5.69873
5.56483
5.44107
5.32242
5.2055
5.08908
4.97302
4.85726
4.74142
4.62479
4.50652
4.38575
4.26185
4.13433
4.003
6.01989
5.92043
5.78108
5.64186
5.51314
5.3919
5.27334
5.15494
5.03625
4.91748
4.79867
4.67955
4.55964
4.4384
4.3153
4.18993
4.06201
3.93148
5.94289
5.85021
5.71763
5.58422
5.45964
5.34021
5.22128
5.10098
4.97957
4.85776
4.73583
4.6136
4.49076
4.36698
4.24195
4.11551
3.9875
3.85807
5.86977
5.78359
5.65596
5.5257
5.40237
5.28254
5.16214
5.03974
4.91584
4.79131
4.66661
4.54178
4.41671
4.29127
4.16538
4.03902
3.91216
3.78479
5.83344
5.74142
5.6127
5.48168
5.35667
5.23451
5.11147
4.98635
4.85974
4.7326
4.60553
4.47875
4.3523
4.22617
4.10036
3.97493
3.84994
3.72565
5.80957
5.72047
5.59037
5.45553
5.32641
5.2008
5.07512
4.94795
4.81957
4.69076
4.56216
4.43416
4.30699
4.18075
4.05546
3.9312
3.80804
3.6861
5.81217
5.72507
5.59079
5.44937
5.31422
5.18437
5.05603
4.92701
4.797
4.66668
4.53683
4.40804
4.28061
4.15462
4.03003
3.90685
3.78515
3.66505
5.85402
5.75529
5.60944
5.45707
5.31336
5.17849
5.04775
4.91723
4.78566
4.65368
4.52242
4.3927
4.26485
4.13885
4.01463
3.89217
3.77154
3.65285
5.90802
5.79746
5.6367
5.47043
5.31749
5.17845
5.04612
4.91424
4.78089
4.64712
4.51459
4.38425
4.25626
4.13045
4.00665
3.88483
3.76505
3.64747
5.96513
5.84504
5.66688
5.48386
5.3215
5.17952
5.04654
4.91368
4.77871
4.6434
4.50986
4.37906
4.25098
4.12531
4.00181
3.88048
3.76144
3.64477
6.02484
5.89449
5.69534
5.4953
5.32636
5.18358
5.05018
4.91569
4.77872
4.64193
4.50767
4.37667
4.24863
4.12309
3.99983
3.87886
3.76031
3.64435
6.09857
5.94536
5.71752
5.50262
5.33186
5.19046
5.05648
4.9198
4.7807
4.64263
4.50783
4.37669
4.24867
4.12326
4.00025
3.87964
3.76153
3.64598
6.1978
5.99576
5.72901
5.50353
5.33599
5.19746
5.06274
4.92378
4.78283
4.64379
4.50856
4.37714
4.24888
4.12328
4.0002
3.87967
3.76181
3.64673
6.33144
6.04557
5.7331
5.50148
5.33971
5.20427
5.06891
4.92837
4.78652
4.64737
4.51233
4.38112
4.25301
4.12757
4.00472
3.88458
3.76715
3.65202
6.47492
6.0885
5.73268
5.49688
5.33904
5.20467
5.06793
4.92586
4.78328
4.64399
4.50905
4.37795
4.24991
4.12458
4.00186
3.88202
3.76517
3.65185
6.61197
6.13156
5.74851
5.50954
5.35229
5.21711
5.07864
4.93501
4.79137
4.65144
4.51601
4.38451
4.25611
4.1305
4.00753
3.8876
3.77056
3.65717
0.802814
0.763532
0.728712
0.730881
0.777401
0.840705
0.858764
0.771432
0.544013
0.172626
-0.318461
-0.884264
-1.4709
-2.02877
-2.52096
-2.92414
-3.22614
-3.42412
-3.52325
-3.53496
-3.47568
-3.36509
-3.22335
-3.06948
-2.92309
-2.80461
-2.73002
-2.70872
-2.71926
-2.73308
-2.75469
-2.82087
-2.97133
-3.21163
-3.51723
-3.85894
-4.20971
-4.55101
-4.8977
-5.28393
-5.72203
-6.19741
-6.67281
-7.10297
-7.4682
-7.77862
-8.03785
-8.2049
-8.26697
-8.32124
-8.44667
-8.62479
-8.80962
-8.96561
-9.11283
-9.31587
-9.61568
-10.0191
-10.4918
-10.9985
-11.5238
-12.0493
-12.5632
-13.0551
-13.5036
-13.874
-14.1408
-14.2934
-14.3358
-14.2799
-14.1239
-13.8537
-13.5073
-13.158
-12.8253
-12.4938
-12.1745
-11.9257
-11.7881
-11.7656
-11.817
-11.879
-11.9291
-11.9613
-11.9624
-11.9117
-11.7881
-11.5751
-11.2594
-10.831
-10.2817
-9.6054
-8.79857
-7.86019
-6.79178
-5.5976
-4.28495
-2.86481
-1.35232
0.233895
1.87396
3.55013
5.25023
6.96798
8.69715
10.4222
12.119
13.7775
15.3566
16.7445
17.857
18.703
19.3263
19.7727
20.0856
20.3027
20.458
20.58
20.6922
20.813
20.9574
21.1358
21.3541
21.6127
21.908
22.2345
22.5865
22.9581
23.3402
23.7189
24.0748
24.3855
24.6309
24.797
24.879
24.8799
24.8087
24.6776
24.4994
24.2856
24.0462
23.7897
23.5227
23.2503
22.9767
22.7055
22.4394
22.1807
21.9313
21.6932
21.4683
21.2589
21.0669
20.8943
20.7419
20.6091
20.4951
20.3989
20.3181
20.2509
20.1969
20.1544
20.1196
20.0868
20.0501
19.9978
19.9172
19.8256
19.764
19.7439
19.7415
19.7446
19.7567
19.7781
19.8105
19.8522
19.9069
19.9719
20.0635
20.1638
0.539459
0.490692
0.426781
0.37466
0.339531
0.291864
0.182598
-0.0301293
-0.363835
-0.808192
-1.33157
-1.89203
-2.44684
-2.95947
-3.40283
-3.75822
-4.01451
-4.16975
-4.22975
-4.20577
-4.11223
-3.96863
-3.79785
-3.62323
-3.46601
-3.3425
-3.25684
-3.22143
-3.23423
-3.26645
-3.34517
-3.50627
-3.74572
-4.04648
-4.38674
-4.7476
-5.11559
-5.47107
-5.8155
-6.18779
-6.59654
-7.01583
-7.43391
-7.82717
-8.17375
-8.47541
-8.76343
-9.00296
-9.13045
-9.23494
-9.37652
-9.52805
-9.68469
-9.82841
-9.99305
-10.2251
-10.5409
-10.9427
-11.3939
-11.8725
-12.3719
-12.8747
-13.3605
-13.816
-14.2218
-14.5495
-14.778
-14.8997
-14.9188
-14.838
-14.6709
-14.4077
-14.0798
-13.7622
-13.4888
-13.2417
-12.9788
-12.7669
-12.6567
-12.6423
-12.6811
-12.7102
-12.7114
-12.6846
-12.6257
-12.5174
-12.3423
-12.0849
-11.7324
-11.2735
-10.6987
-10.0008
-9.17474
-8.21809
-7.13168
-5.91953
-4.58911
-3.1516
-1.62215
-0.0199865
1.63371
3.32042
5.02849
6.75254
8.48855
10.2281
11.9393
13.5795
15.1128
16.4598
17.5575
18.4165
19.0638
19.5364
19.8716
20.1074
20.2779
20.4128
20.5366
20.6683
20.8232
21.0119
21.2399
21.5073
21.8098
22.1417
22.4971
22.8706
23.2546
23.6364
23.9967
24.3126
24.5627
24.7328
24.8176
24.8203
24.7503
24.62
24.4425
24.2294
23.9907
23.7347
23.4679
23.1956
22.9219
22.6505
22.3841
22.1251
21.8754
21.6367
21.4113
21.2014
21.0091
20.8361
20.6828
20.5494
20.4364
20.3436
20.2661
20.2006
20.1475
20.1043
20.0656
20.0283
19.9876
19.9364
19.8634
19.7833
19.7341
19.7193
19.7175
19.7218
19.7363
19.7592
19.7924
19.8333
19.8861
19.9443
20.0241
20.093
0.391296
0.339219
0.220016
0.0378788
-0.19876
-0.494647
-0.859438
-1.29678
-1.79877
-2.34502
-2.90512
-3.44791
-3.94875
-4.38932
-4.75559
-5.03699
-5.22727
-5.32761
-5.34382
-5.2848
-5.16264
-4.99337
-4.79727
-4.59575
-4.41035
-4.26036
-4.15205
-4.08916
-4.08537
-4.14722
-4.28941
-4.51097
-4.79371
-5.13381
-5.51196
-5.90081
-6.28638
-6.66497
-7.03879
-7.42012
-7.80602
-8.17471
-8.52838
-8.87794
-9.23596
-9.5823
-9.88992
-10.1612
-10.3817
-10.5679
-10.7336
-10.8815
-11.0204
-11.1748
-11.3806
-11.6501
-11.9803
-12.368
-12.7982
-13.2492
-13.7056
-14.1599
-14.595
-14.9905
-15.3234
-15.5738
-15.7299
-15.7927
-15.7739
-15.6858
-15.535
-15.328
-15.0969
-14.8726
-14.6556
-14.4484
-14.2473
-14.0975
-14.0136
-13.9679
-13.9381
-13.8997
-13.8391
-13.7482
-13.6206
-13.445
-13.2094
-12.9007
-12.5066
-12.0146
-11.4132
-10.6926
-9.84546
-8.86762
-7.75864
-6.52196
-5.16507
-3.69948
-2.14104
-0.509959
1.17126
2.8834
4.61566
6.36354
8.12092
9.87185
11.5835
13.2019
14.6798
15.9764
17.066
17.9471
18.6287
19.1354
19.4994
19.7585
19.9482
20.1
20.2394
20.3865
20.557
20.7619
21.0066
21.2902
21.6071
21.9501
22.313
22.6912
23.0794
23.467
23.8356
24.1612
24.4208
24.5987
24.6896
24.6969
24.6302
24.5027
24.3277
24.1173
23.8811
23.6272
23.3619
23.0907
22.8181
22.5477
22.2826
22.0253
21.7778
21.542
21.3196
21.1128
20.9231
20.7516
20.598
20.4621
20.3452
20.2487
20.1707
20.1084
20.0591
20.0164
19.9748
19.9337
19.8908
19.8422
19.7839
19.7258
19.6907
19.681
19.6847
19.6958
19.7137
19.7369
19.7693
19.8076
19.8538
19.8999
19.956
19.9845
0.259013
0.162181
-0.0867663
-0.482987
-0.985603
-1.54733
-2.13554
-2.73168
-3.32404
-3.9017
-4.45108
-4.95655
-5.40322
-5.77962
-6.07909
-6.29816
-6.43589
-6.49624
-6.48671
-6.41496
-6.29096
-6.12859
-5.94481
-5.76129
-5.59443
-5.45223
-5.34409
-5.27709
-5.26251
-5.31273
-5.43717
-5.63726
-5.90512
-6.2315
-6.59599
-6.97665
-7.36551
-7.77177
-8.19251
-8.60355
-9.00129
-9.38266
-9.74101
-10.099
-10.478
-10.8582
-11.2057
-11.5122
-11.7807
-12.0069
-12.1854
-12.3449
-12.5039
-12.6846
-12.9146
-13.208
-13.5546
-13.9417
-14.356
-14.7838
-15.2084
-15.6177
-15.9964
-16.3235
-16.5735
-16.7336
-16.8046
-16.8059
-16.7596
-16.6853
-16.5852
-16.4598
-16.3168
-16.1551
-15.973
-15.7855
-15.6171
-15.4945
-15.4082
-15.3333
-15.2601
-15.1786
-15.077
-14.9448
-14.7734
-14.5544
-14.279
-13.9361
-13.5138
-12.9988
-12.3779
-11.6388
-10.7721
-9.77186
-8.63658
-7.36933
-5.97776
-4.47391
-2.87423
-1.19947
0.52736
2.28646
4.06561
5.85713
7.6489
9.41493
11.1143
12.6999
14.1367
15.4041
16.4887
17.3827
18.0871
18.6178
19.0034
19.2812
19.4881
19.6569
19.8139
19.9797
20.1705
20.3972
20.6647
20.9707
21.3081
21.6676
22.0418
22.427
22.8207
23.2156
23.5946
23.9328
24.2047
24.3934
24.4929
24.5071
24.4462
24.3242
24.1548
23.9499
23.7189
23.4696
23.2082
22.9402
22.6705
22.403
22.141
21.8873
21.644
21.413
21.1962
20.9951
20.8108
20.6439
20.4937
20.3591
20.2409
20.1409
20.0592
19.9936
19.9408
19.8966
19.8565
19.8162
19.7731
19.7277
19.6831
19.6463
19.6281
19.6299
19.6443
19.6635
19.6855
19.7105
19.7417
19.7748
19.8107
19.8417
19.8712
19.866
-0.0203344
-0.230191
-0.676218
-1.28411
-1.95978
-2.64707
-3.32325
-3.97686
-4.59845
-5.18053
-5.71792
-6.20371
-6.62738
-6.97939
-7.25469
-7.45202
-7.5741
-7.62555
-7.61371
-7.54846
-7.44219
-7.30993
-7.16969
-7.03786
-6.92357
-6.83126
-6.76368
-6.72175
-6.70968
-6.73767
-6.81713
-6.95637
-7.15642
-7.41195
-7.71419
-8.05701
-8.44001
-8.87047
-9.32973
-9.78685
-10.2272
-10.6604
-11.0884
-11.519
-11.9494
-12.3576
-12.7266
-13.0478
-13.3194
-13.5481
-13.7424
-13.9164
-14.0798
-14.2594
-14.4915
-14.7876
-15.1284
-15.5026
-15.8986
-16.3028
-16.6968
-17.0638
-17.3868
-17.646
-17.82
-17.9013
-17.9029
-17.8579
-17.799
-17.7449
-17.6853
-17.6078
-17.503
-17.3657
-17.2062
-17.0469
-16.9144
-16.8199
-16.745
-16.6727
-16.5929
-16.4963
-16.3744
-16.2204
-16.0275
-15.7891
-15.4972
-15.1415
-14.7092
-14.1858
-13.5558
-12.8048
-11.9212
-10.8976
-9.73221
-8.4284
-6.99456
-5.44354
-3.79227
-2.06128
-0.27286
1.55256
3.39839
5.2485
7.07943
8.85584
10.5378
12.0949
13.5077
14.7609
15.841
16.7389
17.4537
17.9971
18.3961
18.6877
18.91
19.0963
19.273
19.461
19.6763
19.9296
20.2246
20.5578
20.9202
21.3003
21.6892
22.0832
22.4829
22.8852
23.2751
23.6268
23.9126
24.1137
24.2238
24.2472
24.195
24.0816
23.921
23.7249
23.5022
23.2602
23.0052
22.7428
22.478
22.2152
21.9579
21.7088
21.4703
21.2444
21.0329
20.8372
20.658
20.4959
20.3504
20.2201
20.1051
20.0072
19.927
19.862
19.8086
19.7637
19.724
19.6842
19.6418
19.5992
19.5628
19.539
19.5344
19.5497
19.5774
19.6078
19.6379
19.6675
19.6982
19.7266
19.7532
19.7704
19.7774
19.749
-0.574051
-0.907029
-1.49501
-2.18427
-2.89527
-3.60044
-4.28848
-4.95343
-5.59039
-6.1929
-6.75192
-7.25594
-7.69391
-8.05898
-8.3494
-8.56678
-8.71404
-8.79533
-8.81818
-8.79337
-8.73403
-8.65577
-8.57455
-8.50275
-8.44726
-8.40991
-8.38864
-8.37951
-8.38189
-8.40292
-8.45377
-8.54398
-8.67993
-8.86526
-9.1061
-9.40951
-9.78362
-10.2258
-10.7076
-11.2037
-11.7054
-12.2143
-12.7297
-13.24
-13.7188
-14.1457
-14.5171
-14.831
-15.0852
-15.2916
-15.4667
-15.6168
-15.7548
-15.9098
-16.1137
-16.3709
-16.6694
-17.0045
-17.3641
-17.732
-18.0867
-18.407
-18.6725
-18.8653
-18.9714
-18.9887
-18.9373
-18.8583
-18.7908
-18.7492
-18.7067
-18.6425
-18.5491
-18.4354
-18.321
-18.2247
-18.154
-18.1044
-18.0578
-18.001
-17.9247
-17.8224
-17.6907
-17.5272
-17.3283
-17.0884
-16.7993
-16.4498
-16.0255
-15.5091
-14.8825
-14.1285
-13.233
-12.1875
-10.9903
-9.64619
-8.16514
-6.56139
-4.85268
-3.05926
-1.20274
0.695123
2.612
4.52119
6.38831
8.17498
9.8496
11.3947
12.7987
14.0469
15.1246
16.023
16.7409
17.2897
17.6966
17.9994
18.2369
18.4421
18.6409
18.8538
19.0966
19.379
19.7038
20.0662
20.4557
20.8592
21.2654
21.6702
22.0766
22.4855
22.8852
23.2497
23.5494
23.7636
23.8854
23.92
23.8791
23.7775
23.6288
23.4442
23.2324
23.0002
22.7538
22.499
22.2411
21.9846
21.733
21.4892
21.2558
21.0347
20.8277
20.6363
20.4614
20.3034
20.1623
20.0372
19.9277
19.8352
19.7604
19.7011
19.6536
19.6144
19.5799
19.5455
19.5085
19.471
19.4385
19.4192
19.421
19.4451
19.4833
19.525
19.565
19.6011
19.6335
19.6594
19.6786
19.6842
19.6743
19.6303
-1.41333
-1.76258
-2.31983
-2.95509
-3.62386
-4.3036
-4.97871
-5.64166
-6.28869
-6.91319
-7.50309
-8.0437
-8.52329
-8.9357
-9.27986
-9.55712
-9.76906
-9.91972
-10.0163
-10.0688
-10.0893
-10.0914
-10.0879
-10.0881
-10.0968
-10.1156
-10.144
-10.1798
-10.2208
-10.2696
-10.3335
-10.4203
-10.5385
-10.6994
-10.9191
-11.2132
-11.5923
-12.046
-12.5543
-13.0942
-13.6525
-14.2269
-14.8053
-15.3597
-15.8577
-16.2825
-16.6332
-16.9098
-17.1138
-17.2646
-17.3833
-17.473
-17.5503
-17.6436
-17.7794
-17.9671
-18.2017
-18.4785
-18.7855
-19.1029
-19.4052
-19.6664
-19.8645
-19.9851
-20.0221
-19.9819
-19.8869
-19.7765
-19.698
-19.658
-19.6219
-19.5709
-19.5087
-19.4519
-19.4145
-19.3983
-19.3931
-19.3866
-19.3643
-19.3166
-19.2392
-19.1308
-18.9929
-18.8263
-18.6295
-18.3974
-18.1214
-17.7893
-17.3847
-16.8878
-16.2767
-15.5306
-14.6324
-13.5719
-12.3475
-10.9651
-9.43661
-7.77843
-6.0103
-4.15364
-2.2306
-0.265
1.7153
3.67571
5.57638
7.38083
9.06477
10.6156
12.0231
13.2727
14.3507
15.2487
15.9663
16.5168
16.9292
17.2426
17.4957
17.721
17.9437
18.1832
18.4543
18.7659
19.1195
19.5099
19.926
20.3531
20.778
21.1955
21.6097
22.0252
22.4336
22.8098
23.1226
23.3495
23.4837
23.5309
23.5036
23.4161
23.2816
23.1106
22.9112
22.69
22.4534
22.2074
21.9575
21.7083
21.4632
21.2253
20.9971
20.7808
20.5783
20.3912
20.2207
20.0672
19.9312
19.8122
19.7098
19.6245
19.5571
19.5059
19.4673
19.4376
19.4131
19.3895
19.3638
19.3363
19.3105
19.2949
19.2998
19.328
19.3723
19.422
19.4701
19.5127
19.5481
19.573
19.5862
19.5823
19.5595
19.5038
-2.18466
-2.4592
-2.90557
-3.4526
-4.0613
-4.70016
-5.35039
-6.00501
-6.66088
-7.31066
-7.94115
-8.53567
-9.08024
-9.5676
-9.99555
-10.3634
-10.6711
-10.9213
-11.1187
-11.2715
-11.3911
-11.4896
-11.5775
-11.6622
-11.7479
-11.8376
-11.9327
-12.033
-12.1366
-12.2445
-12.3625
-12.498
-12.6611
-12.8669
-13.1339
-13.4793
-13.9077
-14.4063
-14.9599
-15.5439
-16.1392
-16.7421
-17.3343
-17.8814
-18.3553
-18.7439
-19.0445
-19.2536
-19.377
-19.4431
-19.4743
-19.4708
-19.4537
-19.4544
-19.5002
-19.6064
-19.7712
-19.9858
-20.234
-20.4917
-20.7283
-20.9153
-21.0319
-21.0701
-21.0331
-20.9354
-20.7982
-20.6567
-20.5661
-20.5286
-20.5069
-20.4922
-20.4935
-20.5184
-20.5634
-20.6151
-20.6577
-20.6777
-20.665
-20.6157
-20.5302
-20.4118
-20.2652
-20.0935
-19.8962
-19.6688
-19.4035
-19.088
-18.7056
-18.2343
-17.6482
-16.9213
-16.0324
-14.9686
-13.7273
-12.3148
-10.7445
-9.0351
-7.20985
-5.29357
-3.31084
-1.2875
0.745239
2.74902
4.68286
6.51296
8.21818
9.78576
11.204
12.4594
13.5393
14.4361
15.1514
15.7015
16.1183
16.4417
16.7107
16.9569
17.2041
17.4706
17.7695
18.1084
18.4881
18.9034
19.3431
19.7919
20.2354
20.667
21.091
21.5143
21.9314
22.3182
22.6426
22.8813
23.0275
23.0879
23.0752
23.0031
22.8837
22.7267
22.5398
22.3298
22.1032
21.8666
21.6254
21.384
21.1458
20.9139
20.6911
20.4797
20.2821
20.0999
19.9346
19.7867
19.6568
19.5452
19.4515
19.3756
19.3176
19.2764
19.2484
19.23
19.2177
19.2079
19.1977
19.1856
19.1724
19.1642
19.1719
19.2017
19.2492
19.3041
19.3583
19.406
19.4445
19.4691
19.4781
19.4666
19.4336
19.3681
-2.60006
-2.80768
-3.17024
-3.64589
-4.19912
-4.80034
-5.43169
-6.0843
-6.75285
-7.43051
-8.10624
-8.76373
-9.38685
-9.96521
-10.494
-10.9709
-11.3947
-11.7652
-12.0837
-12.3561
-12.5925
-12.8025
-12.9942
-13.1739
-13.3477
-13.521
-13.6965
-13.8739
-14.0526
-14.2366
-14.4348
-14.6576
-14.917
-15.2284
-15.6083
-16.0667
-16.5979
-17.1842
-17.8053
-18.4311
-19.0409
-19.6331
-20.1917
-20.6857
-21.0955
-21.4137
-21.6346
-21.7529
-21.78
-21.7502
-21.6829
-21.5749
-21.4499
-21.3448
-21.2934
-21.3155
-21.4099
-21.5618
-21.7468
-21.9353
-22.0946
-22.1971
-22.2272
-22.1854
-22.0828
-21.9377
-21.7699
-21.6089
-21.5088
-21.4784
-21.4829
-21.52
-21.593
-21.693
-21.8006
-21.8951
-21.9603
-21.9858
-21.967
-21.9045
-21.8018
-21.6651
-21.5009
-21.3135
-21.1036
-20.8681
-20.601
-20.2922
-19.9256
-19.4777
-18.9185
-18.2166
-17.346
-16.2903
-15.0444
-13.6138
-12.0125
-10.2616
-8.38844
-6.42232
-4.39136
-2.32295
-0.248909
1.79178
3.75815
5.61716
7.34767
8.93541
10.3674
11.6303
12.7119
13.6058
14.3167
14.8648
15.2848
15.618
15.9028
16.1699
16.4418
16.7346
17.0596
17.423
17.8256
18.2624
18.7222
19.1895
19.6496
20.0953
20.5308
20.9638
21.3898
21.7856
22.119
22.367
22.5239
22.5968
22.5984
22.5411
22.436
22.2921
22.1168
21.9174
21.7009
21.4738
21.2415
21.008
20.7768
20.551
20.3338
20.1278
19.9354
19.7588
19.5992
19.4576
19.3349
19.2317
19.1481
19.0837
19.038
19.0097
18.9955
18.9913
18.9936
18.9993
19.0061
19.0125
19.0177
19.0232
19.0371
19.068
19.1167
19.1748
19.2332
19.2851
19.3261
19.3511
19.357
19.3394
19.2979
19.2237
-2.66847
-2.8404
-3.15512
-3.58618
-4.10405
-4.68258
-5.30638
-5.96709
-6.65784
-7.37056
-8.09487
-8.81668
-9.52126
-10.1969
-10.8356
-11.4323
-11.9831
-12.4852
-12.938
-13.3454
-13.7141
-14.05
-14.358
-14.6437
-14.914
-15.1749
-15.4308
-15.6842
-15.9388
-16.2047
-16.4965
-16.829
-17.2156
-17.6681
-18.194
-18.7891
-19.437
-20.1157
-20.7977
-21.4524
-22.0586
-22.6155
-23.1161
-23.5376
-23.8679
-24.1031
-24.2352
-24.2593
-24.1909
-24.0681
-23.9082
-23.7058
-23.4841
-23.2833
-23.1408
-23.08
-23.1015
-23.186
-23.3011
-23.4118
-23.4864
-23.5024
-23.4535
-23.3485
-23.2024
-23.0311
-22.8524
-22.6922
-22.5974
-22.5798
-22.6135
-22.6982
-22.827
-22.9768
-23.1197
-23.2319
-23.2985
-23.3123
-23.2724
-23.1828
-23.0501
-22.882
-22.6858
-22.4672
-22.2287
-21.9693
-21.6854
-21.3693
-21.0061
-20.5714
-20.0321
-19.3526
-18.5031
-17.4632
-16.224
-14.7884
-13.1706
-11.3938
-9.48885
-7.48873
-5.42426
-3.32381
-1.21893
0.851875
2.84734
4.73312
6.48652
8.09205
9.536
10.8046
11.8854
12.7737
13.4782
14.0236
14.4468
14.7898
15.0907
15.3787
15.6743
15.9916
16.34
16.7251
17.1478
17.603
18.0793
18.5611
19.0343
19.4924
19.94
20.3839
20.8186
21.2208
21.5598
21.8142
21.9794
22.063
22.0771
22.0329
21.9399
21.8069
21.6416
21.4518
21.2445
21.0263
20.8021
20.576
20.3514
20.1316
19.9201
19.7198
19.533
19.3621
19.2086
19.0738
18.9587
18.8647
18.7928
18.7425
18.7126
18.7015
18.7059
18.7207
18.7417
18.7657
18.7907
18.8165
18.8425
18.8676
18.8942
18.9295
18.9786
19.0376
19.0984
19.1527
19.1953
19.2202
19.2235
19.2005
19.151
19.0684
-2.51219
-2.66969
-2.96664
-3.38219
-3.89181
-4.47163
-5.10667
-5.78908
-6.5127
-7.26932
-8.04861
-8.8384
-9.62612
-10.4005
-11.1519
-11.872
-12.5537
-13.1911
-13.7819
-14.328
-14.8331
-15.2996
-15.7303
-16.1295
-16.5028
-16.8562
-17.1949
-17.5244
-17.8541
-18.2009
-18.586
-19.027
-19.5356
-20.117
-20.7662
-21.4657
-22.1933
-22.926
-23.637
-24.2995
-24.888
-25.3973
-25.8302
-26.1749
-26.4266
-26.5849
-26.6418
-26.5922
-26.4516
-26.258
-26.0266
-25.7494
-25.4509
-25.1737
-24.9567
-24.8244
-24.7777
-24.7948
-24.8387
-24.8728
-24.8673
-24.8057
-24.6901
-24.537
-24.3639
-24.1836
-24.0087
-23.8625
-23.7844
-23.7825
-23.8427
-23.9651
-24.1335
-24.3151
-24.4771
-24.5933
-24.6485
-24.6378
-24.5632
-24.4315
-24.2522
-24.0356
-23.791
-23.5261
-23.2448
-22.9482
-22.6343
-22.2971
-21.9225
-21.4857
-20.9521
-20.2846
-19.4511
-18.4296
-17.2075
-15.7833
-14.1685
-12.3866
-10.4697
-8.453
-6.36906
-4.2476
-2.12126
-0.0290743
1.98704
3.89136
5.65956
7.27494
8.72364
9.99177
11.0673
11.948
12.6467
13.1913
13.6203
13.9751
14.2925
14.6003
14.9174
15.2562
15.6253
16.03
16.4703
16.9404
17.4283
17.9192
18.4007
18.8688
19.328
19.7829
20.225
20.6304
20.971
21.2282
21.3989
21.4908
21.5147
21.4804
21.3966
21.2718
21.1145
20.9325
20.733
20.5224
20.3053
20.0858
19.8675
19.6538
19.4482
19.2534
19.0719
18.9062
18.7584
18.63
18.5229
18.4391
18.3804
18.3472
18.3376
18.3491
18.3777
18.4174
18.4624
18.5092
18.5552
18.6009
18.6475
18.6942
18.7393
18.7849
18.8365
18.895
18.9554
19.0098
19.052
19.0756
19.0757
19.0471
18.99
18.8992
-2.27456
-2.4296
-2.7252
-3.14498
-3.6696
-4.27722
-4.95075
-5.67933
-6.45581
-7.27239
-8.11934
-8.98519
-9.85803
-10.7267
-11.5814
-12.4128
-13.213
-13.9754
-14.6967
-15.3764
-16.0153
-16.6127
-17.1689
-17.6853
-18.1647
-18.6106
-19.0284
-19.4262
-19.8187
-20.2295
-20.6829
-21.196
-21.7778
-22.4286
-23.1364
-23.8785
-24.6327
-25.3775
-26.0901
-26.7446
-27.3072
-27.7652
-28.1311
-28.4053
-28.5886
-28.6828
-28.6823
-28.5838
-28.4004
-28.1664
-27.8933
-27.5687
-27.2181
-26.8885
-26.6187
-26.4341
-26.3358
-26.2984
-26.2826
-26.2532
-26.1833
-26.0611
-25.895
-25.7069
-25.5178
-25.3388
-25.178
-25.0551
-24.9995
-25.0123
-25.0917
-25.2449
-25.4468
-25.6545
-25.8305
-25.9444
-25.9795
-25.9323
-25.8081
-25.6174
-25.3746
-25.0942
-24.7884
-24.4657
-24.1313
-23.7873
-23.4325
-23.0611
-22.6591
-22.2015
-21.6543
-20.9818
-20.1542
-19.1508
-17.9566
-16.5632
-14.9751
-13.2113
-11.3028
-9.2845
-7.19093
-5.05697
-2.91936
-0.818385
1.20411
3.11232
4.88117
6.49363
7.93638
9.19627
10.263
11.1371
11.8343
12.3834
12.8223
13.1909
13.5246
13.8502
14.1859
14.5433
14.9306
15.352
15.806
16.2851
16.7779
17.2717
17.7571
18.2328
18.7029
19.1677
19.6142
20.0186
20.3563
20.6124
20.7854
20.8825
20.913
20.8852
20.8073
20.6882
20.5366
20.3608
20.168
19.9641
19.7538
19.5407
19.3287
19.1211
18.9211
18.7311
18.5539
18.3926
18.2496
18.1271
18.028
17.9552
17.9115
17.8981
17.913
17.9525
18.0114
18.082
18.157
18.2317
18.3028
18.3702
18.4367
18.5034
18.5685
18.6297
18.6883
18.7471
18.805
18.8564
18.8953
18.9153
18.911
18.8767
18.8121
18.7135
-2.04463
-2.20566
-2.5166
-2.96465
-3.53219
-4.19679
-4.93811
-5.74048
-6.59314
-7.48627
-8.40915
-9.35006
-10.2979
-11.2434
-12.1792
-13.0992
-13.9973
-14.8668
-15.7028
-16.5014
-17.2589
-17.9711
-18.6351
-19.2501
-19.8164
-20.3365
-20.8154
-21.262
-21.6936
-22.136
-22.6123
-23.138
-23.7232
-24.3698
-25.068
-25.7979
-26.5362
-27.2589
-27.9454
-28.575
-29.1099
-29.5269
-29.8403
-30.0611
-30.1929
-30.2389
-30.199
-30.0736
-29.8754
-29.6349
-29.3598
-29.0272
-28.6602
-28.3103
-28.0168
-27.8046
-27.676
-27.6039
-27.5485
-27.4772
-27.3668
-27.2103
-27.0197
-26.8191
-26.6316
-26.4676
-26.3303
-26.235
-26.2061
-26.2379
-26.3318
-26.504
-26.7298
-26.959
-27.145
-27.2505
-27.2567
-27.1618
-26.9748
-26.7115
-26.3922
-26.0374
-25.6615
-25.2731
-24.877
-24.4754
-24.0671
-23.6465
-23.1997
-22.7025
-22.1236
-21.4311
-20.6005
-19.6151
-18.4586
-17.1136
-15.5725
-13.8457
-11.9605
-9.95295
-7.86118
-5.72549
-3.58847
-1.49477
0.5142
2.40585
4.1575
5.75328
7.18038
8.42646
9.48338
10.3542
11.055
11.6137
12.0662
12.4503
12.8001
13.1419
13.4935
13.8666
14.2685
14.7015
15.162
15.6424
16.1331
16.6243
17.1109
17.5933
18.073
18.5443
18.9904
19.3884
19.7183
19.969
20.1404
20.239
20.2724
20.248
20.1737
20.0583
19.9112
19.741
19.5547
19.3577
19.1542
18.9478
18.742
18.5399
18.3443
18.1579
17.9839
17.8261
17.6872
17.5699
17.4786
17.4179
17.3915
17.4009
17.4442
17.5164
17.6104
17.7166
17.8264
17.9336
18.034
18.1262
18.213
18.2979
18.3809
18.4587
18.5285
18.5907
18.646
18.692
18.7246
18.7383
18.7279
18.6874
18.6158
18.5099
-1.84177
-2.0198
-2.36823
-2.87378
-3.51435
-4.26195
-5.09129
-5.981
-6.9144
-7.87808
-8.86148
-9.85659
-10.8577
-11.8606
-12.8617
-13.8563
-14.8368
-15.7922
-16.7124
-17.5905
-18.4218
-19.2021
-19.9287
-20.6002
-21.2168
-21.7809
-22.2965
-22.77
-23.2168
-23.6588
-24.1159
-24.6052
-25.1413
-25.7317
-26.3735
-27.0514
-27.741
-28.4151
-29.0514
-29.6355
-30.1392
-30.5295
-30.8093
-30.9954
-31.095
-31.1127
-31.0537
-30.9265
-30.7454
-30.5394
-30.313
-30.0274
-29.6916
-29.3605
-29.0776
-28.8667
-28.7317
-28.6463
-28.5724
-28.4818
-28.3571
-28.1961
-28.0115
-27.8248
-27.6584
-27.5219
-27.4158
-27.3513
-27.3462
-27.3941
-27.5018
-27.6885
-27.9302
-28.1735
-28.363
-28.4548
-28.4287
-28.2831
-28.0274
-27.6816
-27.2758
-26.8389
-26.3884
-25.9312
-25.4684
-25.0001
-24.5261
-24.0421
-23.5361
-22.986
-22.3637
-21.6426
-20.8046
-19.8374
-18.724
-17.4372
-15.9544
-14.2761
-12.4254
-10.4387
-8.35916
-6.23626
-4.11974
-2.05482
-0.0799868
1.7761
3.49416
5.06067
6.46346
7.69091
8.73715
9.6068
10.3151
10.8875
11.3572
11.7594
12.1263
12.4836
12.8488
13.2338
13.6445
14.0813
14.54
15.0144
15.4974
15.9837
16.471
16.9595
17.4456
17.9176
18.3566
18.7421
19.0588
19.2996
19.4653
19.5615
19.5945
19.5708
19.4983
19.3862
19.244
19.0802
18.9011
18.7114
18.5149
18.3147
18.1141
17.9161
17.7237
17.5398
17.3681
17.2127
17.0762
16.9626
16.8785
16.8307
16.8239
16.8598
16.9359
17.0457
17.1792
17.3247
17.472
17.6145
17.7469
17.8666
17.9759
18.0787
18.1771
18.2696
18.3519
18.4208
18.4756
18.5159
18.5401
18.5448
18.5263
18.4787
18.4
18.2868
-1.60919
-1.81171
-2.21207
-2.79073
-3.51617
-4.35113
-5.26439
-6.23067
-7.23069
-8.25231
-9.28968
-10.339
-11.3949
-12.4517
-13.5039
-14.5454
-15.5672
-16.5558
-17.4989
-18.3911
-19.2321
-20.0224
-20.7607
-21.4449
-22.0739
-22.6498
-23.1752
-23.6537
-24.0958
-24.5179
-24.9354
-25.3664
-25.8279
-26.3325
-26.8856
-27.4805
-28.0966
-28.707
-29.2854
-29.8154
-30.2821
-30.6575
-30.9316
-31.115
-31.2151
-31.2362
-31.1894
-31.0935
-30.9686
-30.8384
-30.7039
-30.5169
-30.2656
-29.9972
-29.7581
-29.5756
-29.4565
-29.3774
-29.3044
-29.2146
-29.0976
-28.9559
-28.8018
-28.6512
-28.5206
-28.4196
-28.3482
-28.3135
-28.3307
-28.396
-28.5175
-28.716
-28.9683
-29.2202
-29.4088
-29.4838
-29.4235
-29.2256
-28.8995
-28.4703
-27.9781
-27.462
-26.942
-26.4206
-25.8931
-25.3573
-24.8141
-24.2618
-23.6903
-23.081
-22.4104
-21.6579
-20.8098
-19.8566
-18.7806
-17.5484
-16.1237
-14.4965
-12.6868
-10.7335
-8.68523
-6.59638
-4.52031
-2.50301
-0.579675
1.22589
2.89743
4.42276
5.79095
6.99284
8.02556
8.89428
9.61233
10.2022
10.6927
11.1159
11.5017
11.8739
12.2505
12.6428
13.0555
13.4883
13.9383
14.4018
14.8755
15.3573
15.8462
16.3387
16.8255
17.2904
17.7147
18.0816
18.3806
18.6075
18.7641
18.8545
18.8841
18.8588
18.7871
18.6789
18.5432
18.3871
18.2159
18.0336
17.8434
17.6485
17.452
17.2573
17.0674
16.8852
16.7149
16.5603
16.4241
16.3119
16.2339
16.1992
16.2132
16.2774
16.3891
16.5404
16.7181
16.9067
17.0945
17.2744
17.4404
17.5893
17.723
17.8452
17.9586
18.0632
18.1563
18.2328
18.2897
18.3257
18.3409
18.3344
18.305
18.2483
18.1615
18.0415
-1.19636
-1.42649
-1.87972
-2.53108
-3.3402
-4.26189
-5.26062
-6.30995
-7.39159
-8.49471
-9.61245
-10.735
-11.8454
-12.9277
-13.9758
-14.9887
-15.9648
-16.8993
-17.7849
-18.6194
-19.4069
-20.1526
-20.8584
-21.5218
-22.1394
-22.71
-23.2317
-23.7022
-24.1265
-24.5169
-24.8855
-25.2495
-25.6289
-26.0395
-26.4915
-26.9847
-27.5079
-28.0422
-28.5621
-29.045
-29.4807
-29.8556
-30.1554
-30.3792
-30.5303
-30.6095
-30.6269
-30.6055
-30.571
-30.5456
-30.5276
-30.4694
-30.3454
-30.1856
-30.0294
-29.9062
-29.8283
-29.7776
-29.7255
-29.6555
-29.565
-29.46
-29.3512
-29.2495
-29.1654
-29.1069
-29.0745
-29.0727
-29.1123
-29.1918
-29.3236
-29.5277
-29.7825
-30.0357
-30.2176
-30.2706
-30.1729
-29.9256
-29.5386
-29.0388
-28.4725
-27.8866
-27.3052
-26.7286
-26.1474
-25.5553
-24.9519
-24.3363
-23.7013
-23.0328
-22.3134
-21.5283
-20.6666
-19.7175
-18.6616
-17.4648
-16.0862
-14.5081
-12.7478
-10.8457
-8.85239
-6.82279
-4.81038
-2.85861
-0.99913
0.74518
2.35863
3.83124
5.15538
6.32568
7.34168
8.20786
8.9354
9.54312
10.0556
10.501
10.9057
11.2922
11.678
12.0735
12.4828
12.9066
13.3446
13.7964
14.2625
14.7424
15.2327
15.7249
16.2043
16.6532
17.0555
17.399
17.677
17.8879
18.0329
18.1149
18.1381
18.1095
18.0388
17.936
17.8088
17.6622
17.5002
17.3259
17.1423
16.9528
16.7608
16.5694
16.3811
16.1991
16.028
15.8717
15.7332
15.6213
15.55
15.53
15.5667
15.6607
15.8087
16.002
16.2252
16.4592
16.6902
16.9099
17.1115
17.291
17.4501
17.5931
17.7223
17.8382
17.9395
18.0221
18.0814
18.1145
18.1211
18.1021
18.0594
17.9912
17.8959
17.7705
-0.455059
-0.725969
-1.24565
-1.98208
-2.88945
-3.9172
-5.0254
-6.18257
-7.3637
-8.54918
-9.72414
-10.8735
-11.9741
-13.002
-13.9552
-14.8498
-15.6984
-16.5059
-17.2717
-17.9962
-18.686
-19.3503
-19.994
-20.6163
-21.2118
-21.774
-22.2942
-22.7619
-23.1741
-23.5396
-23.8721
-24.1868
-24.501
-24.832
-25.1941
-25.5943
-26.0313
-26.497
-26.9702
-27.425
-27.8495
-28.2394
-28.5868
-28.8841
-29.1276
-29.3158
-29.4537
-29.5549
-29.6386
-29.7276
-29.8293
-29.9044
-29.9202
-29.893
-29.8499
-29.814
-29.8017
-29.8028
-29.7936
-29.7631
-29.7144
-29.6556
-29.5966
-29.5466
-29.513
-29.5011
-29.5087
-29.5364
-29.5935
-29.6821
-29.8153
-30.0123
-30.2536
-30.4934
-30.6639
-30.6984