/*--------------------------------*- C++ -*----------------------------------*\
  =========                 |
  \\      /  F ield         | OpenFOAM: The Open Source CFD Toolbox
   \\    /   O peration     | Website:  https://openfoam.org
    \\  /    A nd           | Version:  6
     \\/     M anipulation  |
\*---------------------------------------------------------------------------*/
FoamFile
{
    version     2.0;
    format      ascii;
    class       volScalarField;
    location    "0.1";
    object      s;
}
// * * * * * * * * * * * * * * * * * * * * * * * * * * * * * * * * * * * * * //

dimensions      [0 0 0 0 0 0 0];

internalField   nonuniform List<scalar> 
12225
(
1
1
1
1
1
1
1
1
1
1
1
1
1
1
1
1
1
1
1
1
1
1
1
1
1
1
1
1
1
1
1
1
1
1
1
1
1
1
1
1
1
1
1
1
1
1
1
1
1
1
1
1
1
1
1
1
1
1
1
1
1
1
1
1
1
1
1
1
1
1
1
1
1
1
1
1
1
1
1
1
1
1
1
1
1
1
1
1
1
1
1
1
1
1
1
1
1
1
1
1
1
1
1
1
1
1
1
1
1
1
1
1
1
1
1
1
1
1
1
1
1
1
1
1
1
1
1
1
1
1
1
1
1
1
1
1
1
1
1
1
1
1
1
1
1
1
1
1
1
1
1
1
1
1
1
1
1
1
1
1
1
1
1
1
1
1
1
1
1
1
1
1
1
1
1
1
1
1
1
1
1
1
1
1
1
1
1
1
1
1
1
1
1
1
1
1
1
1
1
1
1
1
1
1
1
1
1
1
1
1
1
1
1
1
1
1
1
1
1
1
1
1
1
1
1
1
1
1
1
1
1
1
1
1
1
1
1
1
1
1
1
1
1
1
1
1
1
1
1
1
1
1
1
1
1
1
1
1
1
1
1
1
1
1
1
1
1
1
1
1
1
1
1
1
1
1
1
1
1
1
1
1
1
1
1
1
1
1
1
1
1
1
1
1
1
1
1
1
1
1
1
1
1
1
1
1
1
1
1
1
1
1
1
1
1
1
1
1
1
1
1
1
1
1
1
1
1
1
1
1
1
1
1
1
1
1
1
1
1
1
1
1
1
1
1
1
1
1
1
1
1
1
1
1
1
1
1
1
1
1
1
1
1
1
1
1
1
1
1
1
1
1
1
1
1
1
1
1
1
1
1
1
1
1
1
1
1
1
1
1
1
1
1
1
1
1
1
1
1
1
1
1
1
1
1
1
1
1
1
1
1
1
1
1
1
1
1
1
1
1
1
1
1
1
1
1
1
1
1
1
1
1
1
1
1
1
1
1
1
1
1
1
1
1
1
1
1
1
1
1
1
1
1
1
1
1
1
1
1
1
1
1
1
1
1
1
1
1
1
1
1
1
1
1
1
1
1
1
1
1
1
1
1
1
1
1
1
1
1
1
1
1
1
1
1
1
1
1
1
1
1
1
1
1
1
1
1
1
1
1
1
1
1
1
1
1
1
1
1
1
1
1
1
1
1
1
1
1
1
1
1
1
1
1
1
1
1
1
1
1
0.777186
0.779896
0.790061
0.80089
0.812229
0.825258
0.834017
0.841588
0.846601
0.848365
0.847441
0.845464
0.842257
0.839298
0.834907
0.83018
0.823836
0.818612
0.812257
0.804894
0.798038
0.792912
0.787777
0.783662
0.779936
0.771275
0.744575
0.729342
0.72839
0.731757
0.741626
0.751926
0.758702
0.763759
0.767843
0.770847
0.7745
0.778659
0.781818
0.78324
0.783855
0.784614
0.786228
0.790211
0.804206
0.829602
0.852104
0.875061
0.895624
0.910973
0.92068
0.926611
0.930301
0.932168
0.932764
0.932745
0.93207
0.929906
0.927001
0.921109
0.908405
0.863444
0.86265
0.942863
0.975543
0.978507
0.979681
0.980047
0.980081
0.980036
0.979859
0.979525
0.979107
0.978764
0.978572
0.978349
0.977902
0.977358
0.976947
0.976699
0.97645
0.976109
0.975801
0.975628
0.975478
0.975423
0.975462
0.975592
0.975783
0.975992
0.976216
0.976473
0.976784
0.977185
0.977715
0.978346
0.978902
0.979103
0.978863
0.97834
0.977864
0.97765
0.977757
0.977781
0.977729
0.977484
0.97532
0.948275
0.924366
0.92122
0.920267
0.919861
0.919722
0.919708
0.919761
0.919992
0.920546
0.921587
0.922546
0.923238
0.924089
0.924931
0.92566
0.926353
0.927062
0.92783
0.928607
0.929342
0.930046
0.930686
0.931141
0.931481
0.931689
0.931743
0.931631
0.931352
0.931094
0.930849
0.930904
0.931231
0.931703
0.932258
0.932835
0.933435
0.934082
0.934742
0.935356
0.935987
0.936669
0.937297
0.937869
0.938477
0.939291
0.940431
0.941425
0.942509
0.944608
0.949829
0.958807
0.966857
0.972733
0.976063
0.977263
0.977302
0.976116
0.968597
0.94511
0.933591
0.934561
0.936053
0.93762
0.939068
0.939494
0.939641
0.940349
0.941748
0.942687
0.943516
0.94399
0.944818
0.777401
0.780083
0.792078
0.806304
0.823176
0.842401
0.865577
0.886307
0.90125
0.910488
0.915014
0.915604
0.915048
0.913732
0.911247
0.908253
0.904172
0.900336
0.892162
0.887115
0.877414
0.866024
0.854606
0.837557
0.826408
0.806911
0.791034
0.784146
0.767694
0.749973
0.746724
0.751992
0.761605
0.767079
0.76977
0.772078
0.777465
0.793104
0.804604
0.808968
0.817575
0.836047
0.858197
0.882092
0.910334
0.93687
0.954266
0.960905
0.9621
0.961963
0.960929
0.957701
0.953124
0.948305
0.943809
0.939597
0.936169
0.932695
0.917426
0.886625
0.901178
0.920019
0.946998
0.974949
0.982221
0.984679
0.986529
0.987232
0.987423
0.987412
0.987162
0.986909
0.98686
0.986841
0.986833
0.986891
0.987107
0.98749
0.987991
0.988592
0.98926
0.989925
0.990564
0.991108
0.991508
0.991667
0.991726
0.991738
0.991679
0.99148
0.991157
0.990721
0.990141
0.989362
0.988264
0.986737
0.98479
0.982002
0.978017
0.974222
0.972136
0.972479
0.975148
0.977527
0.9784
0.976346
0.965448
0.934033
0.915727
0.909084
0.905786
0.904502
0.904191
0.905715
0.908771
0.911031
0.913786
0.918007
0.921052
0.92379
0.927473
0.930117
0.932035
0.933868
0.935496
0.937353
0.939162
0.940771
0.942389
0.944182
0.946112
0.948463
0.95011
0.950691
0.950278
0.94887
0.946486
0.943224
0.939813
0.936879
0.934633
0.933167
0.932146
0.93133
0.930776
0.930545
0.930565
0.930938
0.931998
0.932845
0.933815
0.93441
0.934442
0.934227
0.93344
0.93118
0.928113
0.926051
0.925679
0.926876
0.933156
0.95075
0.965205
0.975184
0.979525
0.978657
0.969461
0.945316
0.937512
0.934637
0.927252
0.907575
0.900246
0.903042
0.915096
0.921967
0.925753
0.930466
0.934492
0.938833
0.778968
0.779229
0.787003
0.793252
0.798194
0.82129
0.85495
0.884203
0.904253
0.917416
0.925838
0.930337
0.931754
0.93174
0.931209
0.929727
0.928436
0.925599
0.923222
0.917735
0.913852
0.905984
0.898681
0.88975
0.877668
0.867381
0.854565
0.837296
0.826887
0.812802
0.791211
0.772715
0.762932
0.761169
0.762064
0.765536
0.77442
0.803023
0.853854
0.88539
0.911086
0.937274
0.959139
0.97112
0.973761
0.973435
0.971575
0.966556
0.960168
0.952209
0.945631
0.938643
0.93718
0.937768
0.938777
0.938011
0.93572
0.92877
0.904038
0.910513
0.949532
0.969632
0.980947
0.98855
0.991153
0.993036
0.993966
0.994544
0.994792
0.994916
0.995041
0.995221
0.9955
0.995772
0.995947
0.996118
0.996339
0.996531
0.996681
0.99676
0.99679
0.996762
0.996597
0.996397
0.996178
0.995924
0.995611
0.995244
0.994829
0.994357
0.993776
0.99304
0.992079
0.990741
0.988738
0.985544
0.980156
0.971166
0.960285
0.956573
0.957175
0.962848
0.971003
0.976636
0.976347
0.967434
0.940103
0.909899
0.900097
0.896482
0.895564
0.89579
0.898722
0.902408
0.904964
0.909335
0.914338
0.918703
0.923066
0.928099
0.932671
0.936147
0.938611
0.939837
0.940748
0.941975
0.943181
0.944384
0.945842
0.947827
0.950486
0.954635
0.960362
0.965573
0.969374
0.971557
0.973031
0.973805
0.974081
0.974189
0.974085
0.973658
0.97292
0.97141
0.969468
0.968022
0.967568
0.967659
0.968713
0.970022
0.969779
0.968762
0.966879
0.965206
0.963644
0.961337
0.956319
0.944466
0.932177
0.925376
0.92389
0.924878
0.932355
0.95654
0.973513
0.981898
0.981709
0.97493
0.953628
0.942018
0.935629
0.923421
0.916917
0.917227
0.918586
0.918171
0.916825
0.917005
0.919195
0.924457
0.782168
0.780471
0.782552
0.784494
0.791515
0.812601
0.845441
0.874475
0.897913
0.914783
0.925947
0.93268
0.936492
0.938339
0.938929
0.938983
0.938858
0.938463
0.937775
0.936097
0.934026
0.930646
0.92508
0.918233
0.908463
0.899871
0.890557
0.873641
0.853006
0.839726
0.828486
0.807802
0.78512
0.770154
0.765633
0.76661
0.778648
0.831898
0.887677
0.92387
0.953843
0.973101
0.979723
0.979689
0.976892
0.968494
0.961018
0.95489
0.948312
0.93806
0.929433
0.920827
0.917552
0.918199
0.92145
0.928612
0.932945
0.916184
0.914712
0.958141
0.9756
0.98374
0.990166
0.99392
0.995519
0.996603
0.997056
0.997366
0.997513
0.997595
0.99769
0.99778
0.997872
0.997917
0.997928
0.99791
0.997851
0.997752
0.997582
0.997346
0.997035
0.996606
0.996058
0.995504
0.994987
0.994519
0.994091
0.993721
0.993415
0.993171
0.992903
0.992516
0.991845
0.99064
0.988519
0.984701
0.977608
0.963776
0.950658
0.948911
0.952466
0.963363
0.969835
0.971732
0.966366
0.942977
0.909404
0.895729
0.890434
0.888563
0.88812
0.888269
0.89003
0.891468
0.892179
0.894283
0.896621
0.899367
0.903041
0.907803
0.9132
0.919566
0.926551
0.932322
0.935444
0.938588
0.940347
0.941852
0.943503
0.94569
0.948435
0.953559
0.96061
0.967528
0.973945
0.978444
0.981113
0.983046
0.984861
0.986589
0.988352
0.989874
0.990892
0.991253
0.991271
0.991232
0.991116
0.990773
0.989776
0.987266
0.982729
0.978098
0.974213
0.971428
0.969795
0.96901
0.968387
0.967139
0.962964
0.947229
0.931809
0.92617
0.92606
0.930616
0.953219
0.975262
0.984117
0.984231
0.980065
0.966503
0.956971
0.943801
0.932281
0.926789
0.923547
0.921362
0.92107
0.921298
0.922001
0.922131
0.781757
0.780597
0.78124
0.785796
0.797656
0.818512
0.840728
0.86548
0.888384
0.907195
0.921253
0.93059
0.936337
0.939566
0.941266
0.942161
0.942676
0.942975
0.943135
0.94319
0.943153
0.942908
0.942186
0.940502
0.93557
0.926853
0.92068
0.91016
0.884999
0.862516
0.848673
0.829795
0.8022
0.778794
0.769966
0.77081
0.787263
0.846403
0.90508
0.947524
0.973312
0.982367
0.982454
0.977328
0.96749
0.963609
0.959039
0.949817
0.929455
0.910695
0.899168
0.893375
0.893201
0.895012
0.902238
0.92233
0.926718
0.916519
0.94014
0.97662
0.985486
0.989609
0.993591
0.996504
0.997645
0.998141
0.998342
0.998432
0.998459
0.998444
0.998319
0.998201
0.998106
0.99798
0.997834
0.997561
0.997094
0.996396
0.995366
0.993974
0.992212
0.990103
0.98792
0.986059
0.984766
0.983847
0.983444
0.983335
0.983597
0.984538
0.985669
0.98708
0.988249
0.98869
0.987967
0.984771
0.977866
0.962564
0.945775
0.941406
0.944401
0.953612
0.957239
0.957008
0.940493
0.911569
0.894038
0.8872
0.884426
0.883442
0.88316
0.883137
0.883474
0.883498
0.883584
0.884246
0.885178
0.885896
0.887084
0.888438
0.890303
0.892887
0.896884
0.903037
0.913483
0.923832
0.932207
0.936343
0.939181
0.942398
0.944766
0.949818
0.957988
0.966537
0.974486
0.981096
0.985748
0.988725
0.990612
0.992342
0.994075
0.995169
0.995694
0.995813
0.995778
0.995619
0.995103
0.993894
0.991373
0.985779
0.976442
0.968443
0.963133
0.960072
0.959203
0.95939
0.960702
0.963348
0.964094
0.963076
0.954861
0.935323
0.927293
0.926658
0.931607
0.956433
0.978443
0.986169
0.986947
0.985055
0.979982
0.975119
0.96685
0.951606
0.938954
0.930985
0.925433
0.922882
0.922899
0.924386
0.778662
0.780359
0.788377
0.803451
0.813258
0.823488
0.839389
0.858662
0.87877
0.896857
0.91182
0.922927
0.930735
0.935805
0.938977
0.94081
0.941832
0.942519
0.943063
0.943587
0.944031
0.944236
0.94425
0.944102
0.943229
0.939074
0.93182
0.923934
0.903338
0.87675
0.862057
0.837889
0.803506
0.778637
0.771716
0.774748
0.800962
0.867373
0.926303
0.965412
0.982589
0.984808
0.980879
0.971492
0.969192
0.964888
0.952757
0.918651
0.898287
0.890133
0.885361
0.884992
0.886417
0.891073
0.902203
0.922362
0.922301
0.922293
0.966254
0.985653
0.990869
0.993352
0.995911
0.997902
0.998539
0.998729
0.998774
0.998776
0.998675
0.998511
0.998305
0.998079
0.997776
0.997272
0.996408
0.994915
0.992501
0.988985
0.985015
0.980744
0.976435
0.972365
0.969001
0.966443
0.964448
0.962768
0.961599
0.960814
0.960497
0.9613
0.963608
0.967628
0.973727
0.980037
0.982974
0.983789
0.98008
0.968345
0.944838
0.935895
0.934973
0.937867
0.939012
0.933798
0.914774
0.894488
0.886294
0.883013
0.881901
0.881653
0.88176
0.8824
0.882807
0.88301
0.883397
0.884251
0.885069
0.88546
0.885982
0.886516
0.887274
0.888125
0.88926
0.890844
0.893886
0.899798
0.911791
0.92648
0.933927
0.93949
0.942243
0.946755
0.954713
0.96423
0.973692
0.981616
0.987323
0.991129
0.993743
0.995594
0.996812
0.997439
0.997621
0.997614
0.997484
0.997029
0.995854
0.99296
0.984791
0.969865
0.960177
0.955148
0.953133
0.952747
0.952968
0.954174
0.957889
0.961288
0.962604
0.962594
0.961084
0.952081
0.933697
0.926998
0.927022
0.934109
0.962515
0.981675
0.987707
0.990017
0.989717
0.988698
0.986227
0.981684
0.972781
0.955044
0.939128
0.929121
0.925051
0.924764
0.78035
0.792993
0.809148
0.819919
0.827382
0.834874
0.842211
0.855122
0.869886
0.883718
0.896534
0.90684
0.914896
0.920924
0.925649
0.929235
0.93191
0.934142
0.936029
0.937787
0.939855
0.941939
0.94335
0.943833
0.94378
0.942819
0.939173
0.929978
0.905202
0.882402
0.862523
0.83159
0.795135
0.775514
0.773915
0.784368
0.83029
0.899577
0.952677
0.980265
0.987197
0.985586
0.977242
0.974776
0.971197
0.957986
0.915045
0.89317
0.887943
0.887614
0.890076
0.88935
0.888228
0.892211
0.905869
0.922245
0.923143
0.936712
0.980352
0.991055
0.994359
0.995954
0.997514
0.998575
0.99884
0.998886
0.998874
0.998789
0.99864
0.998386
0.998006
0.9974
0.996365
0.994444
0.991405
0.988009
0.984372
0.980749
0.977263
0.973769
0.97032
0.967425
0.964936
0.962781
0.96056
0.958537
0.956778
0.954989
0.953066
0.951574
0.950427
0.949939
0.951111
0.955452
0.966338
0.975415
0.978438
0.974854
0.956327
0.933225
0.927725
0.92604
0.922492
0.911631
0.897594
0.886752
0.882912
0.881554
0.881259
0.881402
0.882218
0.884027
0.886386
0.889047
0.892042
0.893886
0.894518
0.893691
0.891791
0.890273
0.889247
0.88878
0.889013
0.889685
0.891036
0.893139
0.897635
0.908471
0.925681
0.935535
0.940207
0.945236
0.953447
0.963655
0.973578
0.982222
0.988464
0.992439
0.995074
0.996868
0.997971
0.998437
0.99853
0.998509
0.998307
0.997486
0.995032
0.986515
0.970835
0.960496
0.955086
0.952786
0.95207
0.952063
0.952571
0.955098
0.961681
0.965933
0.966871
0.966456
0.964774
0.96002
0.945048
0.930367
0.926279
0.927526
0.938395
0.968816
0.984129
0.989272
0.992024
0.993113
0.992944
0.992103
0.989709
0.984204
0.969963
0.945922
0.931998
0.927037
0.792959
0.808317
0.821789
0.830605
0.833566
0.836961
0.840832
0.846563
0.853687
0.860176
0.867814
0.875053
0.881086
0.886424
0.89171
0.896789
0.901701
0.905951
0.911184
0.917244
0.923424
0.92983
0.935871
0.940242
0.941844
0.941637
0.9398
0.93226
0.906697
0.880425
0.854748
0.813299
0.7812
0.774747
0.78007
0.812284
0.87547
0.93846
0.976024
0.988604
0.989114
0.983835
0.979621
0.977458
0.967611
0.92135
0.88947
0.887193
0.891962
0.905276
0.906413
0.899597
0.891673
0.897316
0.914227
0.923036
0.928108
0.962726
0.988481
0.994467
0.996524
0.997508
0.998344
0.998802
0.998888
0.998893
0.998841
0.998688
0.998401
0.997906
0.997085
0.995622
0.993135
0.990367
0.988149
0.985553
0.98295
0.981026
0.979098
0.97768
0.97665
0.975777
0.975019
0.973891
0.972456
0.970803
0.968785
0.966131
0.962765
0.958872
0.954108
0.949533
0.947223
0.946171
0.946671
0.952649
0.967877
0.97357
0.969903
0.944739
0.925211
0.920028
0.915711
0.905082
0.892314
0.884874
0.882169
0.881344
0.881266
0.882112
0.88565
0.892299
0.899638
0.904494
0.908656
0.910524
0.911031
0.910368
0.907553
0.903305
0.898346
0.894155
0.892221
0.891443
0.891279
0.892414
0.894868
0.900894
0.916417
0.931362
0.938401
0.944079
0.953
0.964226
0.975501
0.984657
0.991033
0.994808
0.996904
0.998163
0.998871
0.999174
0.999227
0.999153
0.998721
0.997267
0.992067
0.977526
0.965199
0.958118
0.954389
0.952994
0.952866
0.953201
0.954805
0.960181
0.968784
0.97503
0.977438
0.97731
0.975247
0.969589
0.954023
0.935869
0.927199
0.925762
0.928669
0.9443
0.973027
0.985327
0.990872
0.993382
0.995022
0.995255
0.994961
0.993651
0.989447
0.977113
0.948988
0.933611
0.807504
0.821105
0.830594
0.831666
0.829087
0.82372
0.81824
0.81414
0.811855
0.81153
0.812604
0.815307
0.818576
0.822757
0.827061
0.83127
0.836743
0.843519
0.85332
0.866344
0.885307
0.903978
0.919529
0.931239
0.937454
0.93883
0.937414
0.926935
0.896435
0.870533
0.830862
0.78688
0.775292
0.780624
0.808701
0.862173
0.925143
0.971159
0.988889
0.99196
0.989766
0.98338
0.982407
0.978192
0.948699
0.88974
0.883343
0.894312
0.908929
0.911918
0.908614
0.90251
0.899469
0.908423
0.919275
0.92594
0.94137
0.98045
0.993153
0.996444
0.997642
0.998204
0.998595
0.998807
0.998854
0.998806
0.998626
0.998268
0.997661
0.996691
0.99517
0.992884
0.990894
0.988987
0.986786
0.984753
0.983093
0.982093
0.981203
0.980018
0.978986
0.978312
0.977551
0.976866
0.976244
0.975661
0.975039
0.974363
0.973599
0.97269
0.971153
0.967665
0.960693
0.951599
0.945441
0.943639
0.945642
0.959767
0.971018
0.966745
0.93467
0.920835
0.915898
0.906369
0.893579
0.885656
0.882532
0.881518
0.881397
0.882233
0.885702
0.892969
0.902264
0.909152
0.912792
0.914273
0.914736
0.914778
0.913843
0.912097
0.908209
0.901941
0.897423
0.895369
0.894555
0.893929
0.894798
0.899097
0.912082
0.929052
0.937539
0.943553
0.953578
0.966677
0.978388
0.987268
0.992888
0.996139
0.997971
0.998966
0.999433
0.999571
0.999564
0.999415
0.998777
0.996423
0.987579
0.97344
0.963636
0.95785
0.955742
0.955536
0.955902
0.957601
0.962524
0.969526
0.975358
0.979783
0.982268
0.982684
0.982041
0.978793
0.966875
0.943953
0.929803
0.925353
0.925545
0.930706
0.950113
0.974694
0.986143
0.991694
0.994417
0.996032
0.996597
0.996474
0.995507
0.991552
0.977668
0.948453
0.825582
0.833539
0.828835
0.814948
0.79719
0.784008
0.778282
0.775789
0.774832
0.775081
0.775763
0.777003
0.77833
0.779777
0.781206
0.782852
0.785513
0.790048
0.796355
0.809374
0.824336
0.851189
0.887581
0.915404
0.931717
0.935413
0.932395
0.91096
0.878804
0.843435
0.791289
0.773783
0.783434
0.816401
0.856097
0.913973
0.966238
0.988167
0.9937
0.993194
0.988675
0.986519
0.984982
0.972451
0.911188
0.877466
0.886248
0.907201
0.911973
0.911431
0.90771
0.905993
0.907716
0.916397
0.923535
0.933329
0.966363
0.989331
0.995626
0.997398
0.998043
0.998335
0.998589
0.998706
0.998647
0.998385
0.997833
0.996879
0.995354
0.993199
0.99105
0.989521
0.987924
0.985713
0.983384
0.981531
0.980148
0.978499
0.977343
0.976516
0.97599
0.975313
0.974648
0.973814
0.972838
0.971755
0.971163
0.970952
0.971488
0.972352
0.973199
0.973738
0.973777
0.972119
0.964156
0.950589
0.942575
0.941621
0.952574
0.969378
0.964865
0.931061
0.917861
0.910901
0.900146
0.890603
0.885457
0.883125
0.882347
0.882708
0.88508
0.890616
0.898854
0.905887
0.910552
0.913436
0.914937
0.915154
0.91475
0.913839
0.911472
0.906269
0.90107
0.897684
0.896908
0.897029
0.897249
0.899361
0.910559
0.928266
0.937247
0.943618
0.95482
0.968544
0.980529
0.988822
0.993858
0.996788
0.998419
0.999267
0.999629
0.999714
0.999689
0.999473
0.998592
0.995402
0.984673
0.97185
0.963441
0.959765
0.959045
0.959244
0.960793
0.966903
0.974993
0.979783
0.983046
0.985251
0.986044
0.986038
0.985651
0.983838
0.976951
0.954633
0.934646
0.926295
0.924697
0.926068
0.933727
0.954716
0.97393
0.98577
0.991813
0.995072
0.996738
0.997417
0.997331
0.996317
0.991584
0.973174
0.843112
0.833111
0.80185
0.778463
0.771589
0.769705
0.76887
0.768827
0.769015
0.769596
0.77031
0.771068
0.771795
0.772367
0.772693
0.7732
0.774124
0.775985
0.779595
0.787919
0.803042
0.831534
0.879947
0.917078
0.928351
0.928687
0.915261
0.876358
0.843112
0.788799
0.773124
0.78645
0.836397
0.861762
0.909923
0.96271
0.987431
0.994382
0.995109
0.993378
0.98994
0.989365
0.986273
0.962622
0.89424
0.873041
0.894098
0.909649
0.910937
0.909361
0.907549
0.908
0.912961
0.921614
0.930427
0.949892
0.981797
0.993507
0.996753
0.99771
0.998076
0.998284
0.998393
0.99828
0.997843
0.996924
0.995131
0.992781
0.990601
0.98892
0.987401
0.985437
0.982809
0.980484
0.97899
0.977705
0.977087
0.976484
0.976186
0.975845
0.975567
0.975099
0.974433
0.973482
0.972153
0.970355
0.96813
0.965806
0.96368
0.962323
0.962394
0.964899
0.969938
0.974081
0.975754
0.974008
0.960857
0.942831
0.93781
0.944055
0.964361
0.962863
0.93561
0.918052
0.90855
0.900882
0.896224
0.8926
0.889475
0.887364
0.88823
0.891411
0.897683
0.903608
0.908405
0.911594
0.913589
0.914247
0.91427
0.913892
0.912151
0.907993
0.903737
0.900787
0.899107
0.898739
0.89926
0.901997
0.912655
0.929938
0.938141
0.944984
0.957561
0.97186
0.983492
0.991197
0.995619
0.997931
0.999049
0.999578
0.999778
0.999811
0.999756
0.999453
0.998324
0.994454
0.982663
0.970818
0.96426
0.962038
0.961888
0.962675
0.966725
0.975704
0.981493
0.984398
0.98607
0.987368
0.987925
0.987933
0.987744
0.986798
0.982793
0.966117
0.941342
0.928422
0.924852
0.924813
0.927561
0.938007
0.957199
0.97296
0.984874
0.991902
0.995616
0.997334
0.99794
0.997802
0.996383
0.988895
0.840566
0.802625
0.773792
0.769904
0.769649
0.770581
0.771448
0.771955
0.772275
0.772409
0.772484
0.772561
0.772574
0.772466
0.772073
0.77171
0.772002
0.774148
0.780292
0.792868
0.816482
0.860053
0.906549
0.918737
0.919203
0.903515
0.866613
0.817599
0.784124
0.777902
0.794946
0.852008
0.875955
0.904488
0.96228
0.986675
0.994532
0.996051
0.995466
0.99322
0.99223
0.991826
0.987393
0.958409
0.88867
0.871718
0.894314
0.907162
0.908463
0.90722
0.906765
0.908295
0.913908
0.923466
0.93782
0.967734
0.989003
0.995337
0.997104
0.997706
0.99794
0.997955
0.997631
0.996762
0.995008
0.992776
0.990435
0.988632
0.987243
0.985913
0.984187
0.981469
0.979171
0.978036
0.977358
0.976956
0.976776
0.976617
0.976474
0.976276
0.976024
0.975739
0.975497
0.975108
0.974179
0.972474
0.96979
0.966363
0.963091
0.959982
0.956761
0.953471
0.951723
0.95632
0.966918
0.975401
0.977768
0.971888
0.948893
0.936558
0.940578
0.957753
0.958477
0.944736
0.927557
0.912771
0.905795
0.901421
0.899857
0.898909
0.899261
0.900284
0.902704
0.906133
0.90906
0.911125
0.91266
0.913144
0.913085
0.912547
0.911129
0.908532
0.905077
0.902199
0.901686
0.901772
0.902376
0.905074
0.916095
0.93198
0.939059
0.947213
0.960721
0.975425
0.986607
0.993648
0.997374
0.998929
0.999569
0.999822
0.999891
0.999884
0.999786
0.99935
0.997785
0.992348
0.979128
0.968926
0.964294
0.963276
0.963649
0.965988
0.972926
0.97993
0.984512
0.98668
0.98788
0.988733
0.988964
0.988898
0.988702
0.988169
0.985959
0.975618
0.949273
0.931895
0.925544
0.92477
0.925683
0.930175
0.942306
0.959085
0.973629
0.98501
0.992453
0.99628
0.997872
0.998273
0.997971
0.99516
0.824623
0.780525
0.770232
0.774647
0.778362
0.77755
0.776641
0.776067
0.775764
0.775646
0.775597
0.775159
0.773745
0.772105
0.771729
0.772185
0.774594
0.781599
0.798026
0.833134
0.883163
0.900877
0.904721
0.900008
0.868684
0.816536
0.791125
0.786779
0.792487
0.823927
0.873905
0.892768
0.910091
0.955538
0.984729
0.993943
0.996343
0.996471
0.995456
0.994287
0.994116
0.993774
0.989544
0.961359
0.890866
0.867817
0.882792
0.900361
0.902861
0.902819
0.903717
0.906498
0.912055
0.923188
0.946595
0.979621
0.992296
0.995918
0.997057
0.997454
0.99744
0.996841
0.995101
0.992273
0.990454
0.98893
0.987396
0.986291
0.98534
0.983806
0.981409
0.978972
0.977856
0.977331
0.977073
0.976859
0.976738
0.976568
0.976273
0.975908
0.975727
0.97568
0.975669
0.97569
0.975719
0.975521
0.974375
0.971009
0.966065
0.961229
0.956748
0.952092
0.947296
0.942421
0.940629
0.949673
0.968833
0.978883
0.978893
0.95895
0.939387
0.939677
0.948706
0.953459
0.950465
0.942257
0.929917
0.919158
0.91144
0.90781
0.906407
0.906532
0.907219
0.908768
0.910284
0.91158
0.912439
0.912726
0.912673
0.912102
0.910981
0.90897
0.90627
0.90487
0.904458
0.9046
0.905561
0.909253
0.922299
0.935148
0.94113
0.95046
0.965491
0.980077
0.990342
0.995791
0.998283
0.999343
0.999762
0.999906
0.999931
0.99991
0.999762
0.999127
0.996755
0.987962
0.974853
0.967519
0.964691
0.964656
0.966194
0.972274
0.979313
0.98454
0.98784
0.989208
0.990364
0.99085
0.990799
0.990465
0.989854
0.989177
0.987575
0.981165
0.958043
0.936765
0.927206
0.925127
0.925552
0.927747
0.933523
0.946219
0.961986
0.976017
0.986679
0.993612
0.997061
0.998317
0.998456
0.997573
0.813604
0.775719
0.776581
0.782929
0.780583
0.777595
0.775937
0.775042
0.774783
0.774415
0.77323
0.772986
0.77305
0.773579
0.776499
0.785161
0.805306
0.843576
0.867714
0.878091
0.880795
0.87503
0.836943
0.803246
0.795698
0.796271
0.807983
0.835492
0.871355
0.896761
0.907173
0.916965
0.940965
0.97666
0.990164
0.995433
0.996758
0.996643
0.995608
0.995135
0.995204
0.995153
0.992863
0.975942
0.911198
0.865671
0.866655
0.885201
0.890495
0.892274
0.89383
0.897889
0.904999
0.923951
0.958723
0.985295
0.993341
0.995846
0.996649
0.99669
0.99589
0.993459
0.990125
0.988198
0.9872
0.986374
0.985513
0.984799
0.983702
0.981676
0.979201
0.97791
0.977358
0.977099
0.976821
0.976496
0.975961
0.974927
0.974135
0.97387
0.973946
0.974567
0.975302
0.975809
0.97616
0.976561
0.976852
0.976583
0.973808
0.967442
0.960524
0.953537
0.947046
0.940518
0.934271
0.928265
0.930096
0.952657
0.97562
0.981944
0.975572
0.951746
0.942159
0.944111
0.948969
0.949047
0.947407
0.943967
0.937454
0.93035
0.924071
0.918737
0.91583
0.914725
0.914213
0.914281
0.914398
0.914388
0.914032
0.912898
0.912035
0.910356
0.90856
0.908053
0.908189
0.908846
0.910668
0.915785
0.929256
0.937379
0.943445
0.955397
0.971377
0.984975
0.993273
0.997342
0.999008
0.999639
0.999876
0.999949
0.999955
0.99992
0.999707
0.998797
0.995226
0.983467
0.972735
0.967407
0.96648
0.967267
0.971723
0.980615
0.986402
0.989909
0.991771
0.99238
0.992854
0.993007
0.992873
0.992467
0.991453
0.990533
0.98896
0.984373
0.965829
0.941694
0.929807
0.926241
0.926124
0.927418
0.930743
0.937076
0.950602
0.966515
0.979918
0.98943
0.995194
0.997834
0.998614
0.998433
0.810072
0.775683
0.78249
0.783578
0.778571
0.775382
0.773615
0.772676
0.772643
0.773803
0.775401
0.777657
0.784367
0.800232
0.823941
0.839363
0.849543
0.852663
0.851946
0.829239
0.811682
0.805527
0.804224
0.812757
0.834575
0.860362
0.888639
0.902701
0.907859
0.910684
0.9146
0.921722
0.9416
0.973087
0.987615
0.994313
0.996546
0.99678
0.996159
0.995549
0.995564
0.995709
0.995047
0.988765
0.9538
0.876578
0.859432
0.865796
0.875118
0.878448
0.880351
0.88605
0.898818
0.926022
0.968249
0.986899
0.993194
0.995219
0.995527
0.9944
0.991699
0.988931
0.986659
0.985647
0.985163
0.984808
0.984342
0.983673
0.982431
0.980271
0.978433
0.977589
0.97715
0.976772
0.976175
0.975097
0.973604
0.972869
0.972688
0.972924
0.973316
0.97412
0.975118
0.975891
0.976608
0.977227
0.977901
0.978524
0.978827
0.97747
0.971632
0.962496
0.951095
0.941274
0.934197
0.925966
0.916795
0.915257
0.930047
0.966815
0.980346
0.978984
0.96711
0.950064
0.944543
0.944629
0.946107
0.94649
0.945952
0.944611
0.942411
0.939252
0.93582
0.932329
0.928107
0.925052
0.922584
0.921198
0.91919
0.918047
0.916773
0.914346
0.913351
0.913371
0.91376
0.914982
0.917386
0.923397
0.933543
0.939654
0.948351
0.962704
0.978028
0.989442
0.995587
0.9983
0.999412
0.999813
0.999943
0.999974
0.99997
0.999916
0.999625
0.998368
0.993253
0.980418
0.971873
0.968889
0.968952
0.971332
0.979731
0.986904
0.990523
0.992414
0.99344
0.993729
0.993847
0.994263
0.994305
0.994009
0.992974
0.991897
0.990382
0.986674
0.972191
0.946591
0.9326
0.928116
0.927599
0.928114
0.930085
0.933672
0.941067
0.957025
0.972755
0.984733
0.992489
0.99675
0.998467
0.998721
0.808954
0.779117
0.78373
0.783476
0.777952
0.776341
0.776245
0.777711
0.781712
0.788403
0.797359
0.804986
0.814967
0.823692
0.827686
0.82917
0.827001
0.822637
0.820799
0.82176
0.8332
0.857869
0.885959
0.906228
0.921534
0.925787
0.925719
0.922118
0.918952
0.917385
0.917752
0.919348
0.925642
0.945407
0.969547
0.985422
0.993526
0.996268
0.99653
0.995969
0.995664
0.995799
0.995765
0.994039
0.982578
0.933794
0.864197
0.857078
0.860011
0.864046
0.866583
0.873427
0.890346
0.923314
0.968035
0.986288
0.991944
0.993137
0.99215
0.989612
0.987684
0.985824
0.984514
0.984064
0.983897
0.983799
0.983566
0.982919
0.981466
0.979402
0.977813
0.977098
0.976576
0.975795
0.974617
0.973471
0.97257
0.972443
0.97263
0.973096
0.973635
0.974468
0.975536
0.976783
0.977992
0.979115
0.980274
0.980891
0.981449
0.982152
0.981803
0.978259
0.96815
0.951588
0.937545
0.929691
0.917884
0.905408
0.901881
0.909233
0.946964
0.974309
0.979236
0.975981
0.962478
0.950223
0.945292
0.944144
0.943835
0.943987
0.94383
0.943426
0.942608
0.940509
0.939373
0.936978
0.934935
0.932157
0.929635
0.927973
0.924791
0.92206
0.921212
0.921242
0.921661
0.923062
0.925052
0.929767
0.93697
0.94385
0.955404
0.970895
0.984528
0.993034
0.997443
0.999208
0.999758
0.999927
0.999977
0.999986
0.999977
0.999903
0.999519
0.997823
0.990535
0.978687
0.972343
0.971046
0.971913
0.977502
0.985957
0.990357
0.992677
0.99394
0.994357
0.994167
0.994152
0.994465
0.995319
0.99528
0.994538
0.993135
0.991647
0.988441
0.977263
0.951385
0.935524
0.929834
0.928914
0.929153
0.93026
0.932457
0.936795
0.94779
0.965274
0.979701
0.989498
0.995203
0.998003
0.998832
0.809452
0.780292
0.784891
0.785662
0.78411
0.784113
0.786162
0.790702
0.797777
0.805869
0.812588
0.817902
0.822613
0.827708
0.830153
0.832791
0.838994
0.855114
0.886966
0.91406
0.936331
0.947382
0.951758
0.954728
0.958421
0.962088
0.965681
0.967368
0.961241
0.950904
0.936435
0.925358
0.920419
0.920229
0.930048
0.955982
0.979156
0.991184
0.995605
0.996304
0.995962
0.995764
0.99582
0.995544
0.992317
0.975567
0.912126
0.862149
0.855562
0.855139
0.856458
0.860737
0.875915
0.9144
0.964471
0.983984
0.988145
0.988692
0.987773
0.985817
0.984847
0.983968
0.983322
0.983147
0.983138
0.983113
0.982888
0.982211
0.980765
0.979022
0.977798
0.977049
0.97638
0.975494
0.974564
0.973497
0.972935
0.97316
0.973813
0.974862
0.975779
0.97681
0.977938
0.979222
0.980688
0.982193
0.984309
0.986117
0.987236
0.988637
0.989143
0.989023
0.987431
0.979682
0.95798
0.940733
0.9289
0.911131
0.894595
0.88952
0.893596
0.923555
0.962987
0.977824
0.979063
0.975225
0.960923
0.949784
0.945386
0.942653
0.941538
0.940985
0.94047
0.939898
0.938729
0.937393
0.936553
0.934829
0.933356
0.93206
0.930143
0.928326
0.92751
0.92741
0.92752
0.928077
0.92961
0.934007
0.941191
0.951105
0.965556
0.98036
0.991021
0.996723
0.998908
0.999661
0.999899
0.999972
0.999991
0.999992
0.999979
0.999886
0.999406
0.997209
0.988355
0.977992
0.973816
0.973602
0.975754
0.983882
0.989984
0.993252
0.994949
0.99541
0.994794
0.994022
0.993971
0.994271
0.995646
0.996111
0.995834
0.994517
0.992894
0.989892
0.980799
0.95594
0.93842
0.9315
0.929953
0.92998
0.930582
0.932206
0.935049
0.941516
0.957692
0.974386
0.98628
0.993464
0.997247
0.998722
0.813441
0.781678
0.787009
0.789946
0.788393
0.78899
0.793407
0.798241
0.803545
0.812314
0.819238
0.823966
0.830589
0.839227
0.850741
0.876614
0.908913
0.932255
0.942196
0.945771
0.946627
0.944505
0.942891
0.943276
0.947607
0.956347
0.968359
0.980099
0.986218
0.98957
0.98757
0.97405
0.950341
0.926263
0.916746
0.918208
0.938067
0.970142
0.987979
0.994754
0.996069
0.995866
0.995705
0.995681
0.994985
0.989735
0.967148
0.894153
0.860603
0.854446
0.85295
0.854225
0.863023
0.894152
0.955543
0.979121
0.984181
0.985047
0.984651
0.983357
0.982883
0.982781
0.982685
0.982663
0.982689
0.982684
0.982495
0.981818
0.980458
0.979046
0.977891
0.977141
0.976485
0.975664
0.974886
0.974262
0.974542
0.975447
0.976708
0.977428
0.978169
0.979333
0.980747
0.982613
0.985012
0.987511
0.990162
0.99266
0.995055
0.996797
0.99743
0.997361
0.9969
0.995429
0.990424
0.971756
0.951097
0.931656
0.906124
0.885658
0.879796
0.882727
0.90742
0.954565
0.975206
0.98119
0.980423
0.974952
0.960219
0.949726
0.944517
0.941793
0.939554
0.938285
0.936928
0.936086
0.935427
0.934447
0.933596