/*--------------------------------*- C++ -*----------------------------------*\
  =========                 |
  \\      /  F ield         | OpenFOAM: The Open Source CFD Toolbox
   \\    /   O peration     | Website:  https://openfoam.org
    \\  /    A nd           | Version:  6
     \\/     M anipulation  |
\*---------------------------------------------------------------------------*/
FoamFile
{
    version     2.0;
    format      ascii;
    class       volScalarField;
    location    "0.1";
    object      s_0;
}
// * * * * * * * * * * * * * * * * * * * * * * * * * * * * * * * * * * * * * //

dimensions      [0 0 0 0 0 0 0];

internalField   nonuniform List<scalar> 
12225
(
1
1
1
1
1
1
1
1
1
1
1
1
1
1
1
1
1
1
1
1
1
1
1
1
1
1
1
1
1
1
1
1
1
1
1
1
1
1
1
1
1
1
1
1
1
1
1
1
1
1
1
1
1
1
1
1
1
1
1
1
1
1
1
1
1
1
1
1
1
1
1
1
1
1
1
1
1
1
1
1
1
1
1
1
1
1
1
1
1
1
1
1
1
1
1
1
1
1
1
1
1
1
1
1
1
1
1
1
1
1
1
1
1
1
1
1
1
1
1
1
1
1
1
1
1
1
1
1
1
1
1
1
1
1
1
1
1
1
1
1
1
1
1
1
1
1
1
1
1
1
1
1
1
1
1
1
1
1
1
1
1
1
1
1
1
1
1
1
1
1
1
1
1
1
1
1
1
1
1
1
1
1
1
1
1
1
1
1
1
1
1
1
1
1
1
1
1
1
1
1
1
1
1
1
1
1
1
1
1
1
1
1
1
1
1
1
1
1
1
1
1
1
1
1
1
1
1
1
1
1
1
1
1
1
1
1
1
1
1
1
1
1
1
1
1
1
1
1
1
1
1
1
1
1
1
1
1
1
1
1
1
1
1
1
1
1
1
1
1
1
1
1
1
1
1
1
1
1
1
1
1
1
1
1
1
1
1
1
1
1
1
1
1
1
1
1
1
1
1
1
1
1
1
1
1
1
1
1
1
1
1
1
1
1
1
1
1
1
1
1
1
1
1
1
1
1
1
1
1
1
1
1
1
1
1
1
1
1
1
1
1
1
1
1
1
1
1
1
1
1
1
1
1
1
1
1
1
1
1
1
1
1
1
1
1
1
1
1
1
1
1
1
1
1
1
1
1
1
1
1
1
1
1
1
1
1
1
1
1
1
1
1
1
1
1
1
1
1
1
1
1
1
1
1
1
1
1
1
1
1
1
1
1
1
1
1
1
1
1
1
1
1
1
1
1
1
1
1
1
1
1
1
1
1
1
1
1
1
1
1
1
1
1
1
1
1
1
1
1
1
1
1
1
1
1
1
1
1
1
1
1
1
1
1
1
1
1
1
1
1
1
1
1
1
1
1
1
1
1
1
1
1
1
1
1
1
1
1
1
1
1
1
1
1
1
1
1
1
1
1
1
1
1
1
1
1
1
1
1
1
1
1
1
1
1
1
1
1
1
1
1
1
1
1
1
1
1
1
1
1
1
1
1
1
1
1
1
1
1
1
0.777182
0.779857
0.789972
0.800769
0.812083
0.82511
0.833863
0.841405
0.846424
0.848194
0.847274
0.845308
0.842108
0.839155
0.834766
0.830039
0.823704
0.818491
0.812139
0.804787
0.79795
0.79284
0.787717
0.783616
0.779884
0.771181
0.744439
0.72931
0.728388
0.731774
0.741677
0.75198
0.758746
0.763797
0.767878
0.770885
0.774549
0.778699
0.78183
0.783234
0.783849
0.784623
0.786269
0.790359
0.804798
0.830216
0.852677
0.875595
0.896045
0.911264
0.920868
0.926733
0.93037
0.932197
0.93277
0.932744
0.932049
0.929864
0.926943
0.921021
0.908082
0.86293
0.862647
0.943463
0.975527
0.978485
0.979669
0.980046
0.980082
0.98004
0.979869
0.97954
0.979123
0.978776
0.978582
0.978366
0.977928
0.977384
0.976966
0.976714
0.976467
0.976128
0.975815
0.975633
0.975474
0.975404
0.975434
0.975556
0.97574
0.975946
0.976168
0.976422
0.976731
0.977128
0.977655
0.978289
0.978858
0.97908
0.978866
0.978355
0.977883
0.977661
0.97776
0.977782
0.977728
0.977481
0.97544
0.949016
0.924591
0.921318
0.920323
0.919887
0.919727
0.919705
0.919747
0.919952
0.92047
0.92149
0.922466
0.923164
0.924006
0.924851
0.925588
0.926282
0.926988
0.927755
0.928528
0.929261
0.929962
0.930602
0.931056
0.931395
0.931617
0.931674
0.931567
0.931297
0.931051
0.930819
0.930888
0.931227
0.931706
0.932267
0.932849
0.933455
0.934107
0.93477
0.935386
0.936021
0.936703
0.937331
0.937904
0.938519
0.939348
0.940498
0.941496
0.942616
0.944804
0.950267
0.959268
0.967223
0.972966
0.976171
0.97729
0.977302
0.97603
0.968187
0.944639
0.933509
0.934565
0.93605
0.937614
0.939065
0.939493
0.939638
0.940352
0.94176
0.942696
0.943524
0.943994
0.94482
0.7774
0.78005
0.792005
0.806203
0.823061
0.842321
0.865524
0.886294
0.901242
0.910455
0.914942
0.91551
0.914948
0.913631
0.911138
0.90814
0.904056
0.900198
0.892011
0.886966
0.877235
0.865858
0.854417
0.837392
0.826244
0.806711
0.790952
0.784036
0.76744
0.749843
0.746707
0.752084
0.761665
0.767128
0.769818
0.77215
0.777606
0.793311
0.804618
0.808969
0.817715
0.836323
0.858496
0.882446
0.910765
0.937279
0.954508
0.960981
0.962116
0.961963
0.960884
0.95759
0.953023
0.948216
0.943734
0.939535
0.936116
0.932622
0.917097
0.886465
0.901221
0.920284
0.947138
0.975031
0.982238
0.984694
0.986564
0.987287
0.987487
0.98748
0.987238
0.986971
0.986918
0.986898
0.986884
0.986932
0.987133
0.9875
0.987987
0.988574
0.989231
0.989887
0.990519
0.991061
0.991474
0.991639
0.991701
0.991714
0.991661
0.991468
0.991151
0.990721
0.990149
0.989381
0.988303
0.986794
0.984874
0.982139
0.978214
0.974435
0.972325
0.972593
0.975202
0.977545
0.978411
0.976392
0.965739
0.934712
0.915914
0.909136
0.905707
0.904371
0.904025
0.905444
0.908497
0.91079
0.913456
0.917663
0.92078
0.923486
0.927166
0.92988
0.93183
0.93368
0.935317
0.937176
0.939006
0.940631
0.942251
0.944037
0.945947
0.948262
0.949866
0.950428
0.950008
0.948604
0.946214
0.942955
0.939563
0.936654
0.934436
0.932996
0.931995
0.931203
0.930667
0.930452
0.930482
0.930881
0.931949
0.93278
0.933723
0.934282
0.934303
0.934075
0.93325
0.930922
0.927924
0.925969
0.925669
0.92698
0.933745
0.951606
0.96575
0.975529
0.979647
0.978663
0.969116
0.945007
0.937443
0.934585
0.927188
0.907505
0.900209
0.903025
0.915084
0.921975
0.925788
0.930512
0.934537
0.938859
0.778986
0.779219
0.786953
0.793196
0.798198
0.821377
0.855083
0.884354
0.904383
0.917514
0.925899
0.930343
0.931716
0.931691
0.93115
0.92966
0.928368
0.925518
0.923132
0.917628
0.913738
0.905848
0.898547
0.889585
0.877498
0.867221
0.85433
0.83708
0.826716
0.812549
0.790898
0.772481
0.762832
0.76115
0.762085
0.765624
0.774627
0.8036
0.85428
0.885621
0.911298
0.937483
0.959308
0.971199
0.97377
0.973429
0.971528
0.96643
0.960009
0.952043
0.945462
0.938515
0.937104
0.937709
0.938728
0.937961
0.935664
0.928631
0.903923
0.910684
0.949697
0.969696
0.980959
0.988568
0.991169
0.993061
0.993995
0.994581
0.994833
0.994957
0.995079
0.995253
0.995526
0.995798
0.995972
0.996138
0.996352
0.996541
0.996688
0.996767
0.996796
0.996771
0.996611
0.996413
0.996197
0.995947
0.995637
0.995273
0.99486
0.99439
0.993814
0.993082
0.99213
0.990808
0.988832
0.985697
0.980423
0.971632
0.960695
0.956815
0.957295
0.96282
0.97096
0.976612
0.976363
0.967607
0.940706
0.910113
0.900089
0.896355
0.895386
0.895558
0.898387
0.902117
0.90466
0.908941
0.913968
0.918388
0.922755
0.927806
0.932458
0.936016
0.938553
0.939812
0.940717
0.94193
0.943138
0.94434
0.945788
0.947759
0.9504
0.954524
0.96025
0.965445
0.969205
0.971388
0.972878
0.973656
0.973933
0.974035
0.973907
0.973442
0.972663
0.971113
0.969172
0.967759
0.967337
0.967442
0.968556
0.969829
0.969574
0.968539
0.966677
0.965028
0.96345
0.961034
0.955696
0.943594
0.93158
0.925122
0.923834
0.924943
0.933027
0.957565
0.97402
0.982111
0.981804
0.974802
0.95336
0.941944
0.935577
0.923393
0.916938
0.917257
0.918595
0.918163
0.916815
0.917001
0.919215
0.924481
0.782178
0.780478
0.78254
0.784491
0.791554
0.812771
0.845757
0.874814
0.898208
0.914998
0.926085
0.932763
0.936535
0.938345
0.938915
0.938962
0.938833
0.938434
0.937741
0.936048
0.933969
0.930563
0.924973
0.918095
0.908317
0.899732
0.890344
0.873322
0.852709
0.839522
0.828223
0.807416
0.784772
0.76997
0.765583
0.76663
0.778964
0.832754
0.888195
0.924218
0.954096
0.973236
0.979754
0.979693
0.976824
0.968336
0.960878
0.954766
0.94816
0.937863
0.929208
0.920612
0.917402
0.918068
0.921352
0.928589
0.932903
0.916026
0.914716
0.958265
0.975663
0.983741
0.990128
0.993914
0.995523
0.996618
0.997074
0.997384
0.997532
0.997614
0.997706
0.997792
0.997881
0.997926
0.997937
0.99792
0.997862
0.997766
0.997599
0.997367
0.997063
0.996643
0.996107
0.995562
0.995053
0.994592
0.994169
0.993799
0.99349
0.993241
0.992969
0.992579
0.991911
0.990721
0.988633
0.984886
0.977939
0.964375
0.950985
0.949058
0.95241
0.963123
0.969697
0.971627
0.966423
0.943372
0.909643
0.895766
0.890364
0.888443
0.887983
0.888109
0.889835
0.891323
0.892045
0.894125
0.896498
0.89926
0.902935
0.907724
0.913155
0.919547
0.926578
0.93239
0.935497
0.938615
0.940362
0.941855
0.943494
0.945667
0.948398
0.953498
0.960547
0.967491
0.973907
0.978349
0.980997
0.982946
0.984787
0.986533
0.988307
0.989829
0.990839
0.991191
0.991206
0.991167
0.991049
0.990696
0.989668
0.987084
0.982523
0.977922
0.974088
0.97136
0.969773
0.969007
0.968358
0.967011
0.96245
0.946048
0.931235
0.926018
0.926036
0.930979
0.954341
0.975795
0.984337
0.984353
0.980069
0.966435
0.956928
0.943704
0.932238
0.926769
0.923517
0.921346
0.921064
0.921299
0.922004
0.922129
0.781753
0.780597
0.78124
0.785819
0.797739
0.818707
0.841073
0.865919
0.88882
0.907562
0.921525
0.930768
0.936442
0.939625
0.941297
0.942177
0.942685
0.94298
0.943137
0.94319
0.94315
0.9429
0.942166
0.940459
0.935451
0.926738
0.920551
0.909908
0.884578
0.86222
0.848407
0.829396
0.801748
0.778511
0.769886
0.770823
0.7877
0.847328
0.905699
0.947928
0.973512
0.982419
0.982459
0.977185
0.967356
0.963507
0.958898
0.949593
0.929058
0.910356
0.898913
0.893233
0.893094
0.894958
0.90233
0.922472
0.926628
0.916436
0.940218
0.976689
0.985526
0.989618
0.993551
0.996491
0.997648
0.998149
0.998352
0.998442
0.99847
0.998456
0.998331
0.998211
0.998114
0.997989
0.997846
0.997579
0.997121
0.996438
0.99543
0.994066
0.992341
0.990275
0.988129
0.986286
0.985009
0.9841
0.983703
0.983595
0.983837
0.984732
0.985825
0.987205
0.988355
0.98879
0.988086
0.984958
0.978205
0.963206
0.946146
0.94151
0.944254
0.953315
0.956977
0.956825
0.940633
0.911952
0.894126
0.88719
0.884374
0.883375
0.883092
0.883071
0.883432
0.883467
0.883549
0.884194
0.885126
0.885843
0.887029
0.888392
0.890268
0.892872
0.896905
0.903103
0.913599
0.923972
0.932283
0.936389
0.9392
0.942404
0.944778
0.949828
0.958023
0.966588
0.974529
0.981119
0.985739
0.988692
0.99057
0.992313
0.994056
0.995147
0.995666
0.995781
0.995745
0.995582
0.995049
0.993811
0.991224
0.985499
0.976179
0.968296
0.963091
0.960112
0.959303
0.959515
0.960908
0.963482
0.964123
0.96296
0.953854
0.934603
0.92706
0.926617
0.931946
0.957492
0.978889
0.986373
0.987051
0.985138
0.980041
0.975181
0.966758
0.951421
0.938819
0.930881
0.925361
0.92286
0.922901
0.924411
0.77865
0.780359
0.788436
0.803459
0.813236
0.823552
0.839677
0.859128
0.879296
0.897362
0.912245
0.923252
0.930964
0.935955
0.939069
0.940863
0.941862
0.942537
0.943075
0.943597
0.944038
0.944238
0.944251
0.944098
0.943205
0.938974
0.931713
0.923766
0.902969
0.876457
0.861776
0.83745
0.803056
0.778398
0.771661
0.774819
0.801596
0.868212
0.92688
0.965736
0.982694
0.984816
0.980771
0.971369
0.969099
0.964772
0.952492
0.9181
0.89802
0.889945
0.88528
0.884969
0.886448
0.891171
0.902366
0.922435
0.922248
0.922302
0.966326
0.9857
0.990904
0.993372
0.995889
0.997893
0.998541
0.998734
0.998779
0.998782
0.998684
0.998522
0.998317
0.99809
0.997789
0.997293
0.996444
0.994984
0.992623
0.98917
0.985247
0.98102
0.976738
0.972667
0.969262
0.966664
0.964654
0.962966
0.9618
0.961029
0.960718
0.961553
0.963878
0.967884
0.97393
0.9802
0.983114
0.98394
0.980364
0.9689
0.94543
0.936084
0.935001
0.937724
0.938829
0.933722
0.915136
0.894644
0.886331
0.883
0.881871
0.88162
0.881724
0.882365
0.882787
0.882993
0.883363
0.884198
0.885012
0.885399
0.88592
0.886457
0.887221
0.888078
0.889221
0.890821
0.893889
0.899863
0.911981
0.926607
0.933977
0.939519
0.94227
0.946789
0.954767
0.964296
0.973763
0.981677
0.987359
0.991146
0.993754
0.9956
0.996809
0.997427
0.997603
0.997592
0.997456
0.996983
0.995773
0.992789
0.984326
0.969457
0.959938
0.955034
0.953101
0.952757
0.953009
0.954318
0.958134
0.961418
0.962632
0.962585
0.960914
0.951112
0.933093
0.926806
0.92699
0.934539
0.963413
0.982007
0.98789
0.990117
0.989803
0.98877
0.986258
0.981662
0.972572
0.954732
0.938905
0.928997
0.925015
0.924763
0.780363
0.793087
0.809161
0.819834
0.827331
0.834963
0.842475
0.855587
0.870463
0.884328
0.897102
0.907315
0.915271
0.921205
0.925851
0.929369
0.931994
0.934194
0.936063
0.937815
0.939884
0.941963
0.943363
0.943836
0.943778
0.942796
0.939097
0.929808
0.904898
0.882164
0.862235
0.831178
0.794776
0.775388
0.773898
0.784589
0.831036
0.900205
0.953079
0.980429
0.987226
0.985545
0.97711
0.97469
0.971105
0.95776
0.914554
0.892939
0.887842
0.887587
0.890176
0.889424
0.888282
0.892332
0.906135
0.92224
0.923123
0.936866
0.980408
0.99109
0.994388
0.995974
0.997505
0.998572
0.998842
0.998888
0.998877
0.998795
0.998649
0.998397
0.99802
0.997421
0.996403
0.994524
0.991536
0.98818
0.984585
0.980984
0.977509
0.974028
0.970566
0.967614
0.965057
0.962851
0.960594
0.958541
0.956773
0.954982
0.953055
0.951564
0.950433
0.949937
0.951167
0.955552
0.966469
0.975557
0.978607
0.975247
0.957088
0.933581
0.927873
0.926127
0.922647
0.911801
0.897842
0.886841
0.882932
0.881547
0.881245
0.881378
0.882184
0.883998
0.886372
0.88902
0.891976
0.893801
0.894427
0.89358
0.891686
0.890177
0.889165
0.888707
0.88896
0.889638
0.891
0.893129
0.897685
0.908668
0.925804
0.935607
0.940254
0.945288
0.953517
0.963719
0.973646
0.982277
0.988496
0.992457
0.99509
0.996881
0.997974
0.998429
0.998516
0.998491
0.998277
0.997424
0.994871
0.985975
0.970348
0.960179
0.954913
0.952704
0.952042
0.952053
0.952617
0.955376
0.962005
0.96604
0.966844
0.966382
0.964609
0.959615
0.944094
0.929927
0.926155
0.927564
0.938971
0.969439
0.984375
0.989396
0.99212
0.993172
0.992993
0.99213
0.989685
0.984091
0.969549
0.945589
0.931836
0.927
0.793061
0.808353
0.821724
0.830657
0.83369
0.837206
0.841221
0.847133
0.854354
0.860874
0.868503
0.875649
0.881567
0.8868
0.891992
0.89698
0.901808
0.906003
0.911218
0.917268
0.923447
0.929859
0.935903
0.940262
0.941845
0.941629
0.93977
0.932151
0.906458
0.880231
0.85449
0.812982
0.781042
0.774718
0.780139
0.812747
0.875953
0.938831
0.976197
0.988647
0.989108
0.983742
0.979552
0.977384
0.96743
0.920855
0.88927
0.887117
0.89207
0.905445
0.906497
0.89959
0.891769
0.897578
0.914398
0.923029
0.928155
0.962916
0.988521
0.994491
0.996542
0.99752
0.998339
0.9988
0.998889
0.998894
0.998844
0.998692
0.998407
0.997916
0.997106
0.995675
0.993231
0.990475
0.988274
0.98572
0.983117
0.981186
0.979259
0.977803
0.976729
0.975816
0.975041
0.9739
0.972429
0.970723
0.968654
0.965966
0.962555
0.958625
0.953883
0.949381
0.947137
0.946104
0.946627
0.952632
0.967974
0.973736
0.970359
0.945606
0.925529
0.920214
0.915986
0.90552
0.8927
0.88502
0.882211
0.881346
0.881254
0.882069
0.885571
0.892223
0.899605
0.904451
0.908593
0.91048
0.910991
0.910319
0.907464
0.903158
0.898199
0.894048
0.892127
0.891363
0.89122
0.892381
0.894861
0.900985
0.916615
0.931489
0.938475
0.944171
0.953084
0.964299
0.975556
0.9847
0.991061
0.994818
0.996907
0.998164
0.998868
0.999166
0.999215
0.999137
0.998685
0.997166
0.991704
0.976923
0.964789
0.957861
0.954243
0.952921
0.952819
0.953185
0.9549
0.960595
0.969196
0.975263
0.977469
0.977258
0.975027
0.969086
0.95301
0.935208
0.926952
0.925693
0.928776
0.944957
0.97338
0.985506
0.990976
0.99346
0.99507
0.995284
0.994979
0.993634
0.989343
0.976702
0.94858
0.933448
0.807556
0.821021
0.830688
0.831901
0.8294
0.824287
0.818948
0.814885
0.812598
0.812208
0.813255
0.815868
0.819019
0.82308
0.827251
0.831373
0.83678
0.843513
0.853291
0.866332
0.885301
0.903967
0.919537
0.931254
0.937461
0.938825
0.937394
0.926857
0.896327
0.870437
0.830712
0.786777
0.775268
0.780646
0.808904
0.862411
0.925362
0.971276
0.988931
0.991959
0.989727
0.983313
0.982359
0.978121
0.948307
0.889543
0.883259
0.894445
0.909022
0.911939
0.908598
0.90258
0.899671
0.90865
0.919337
0.92596
0.941587
0.980552
0.993177
0.996456
0.997648
0.998206
0.998588
0.998804
0.998853
0.998804
0.998624
0.998264
0.997657
0.99669
0.995181
0.992916
0.990942
0.989072
0.986889
0.984867
0.983202
0.982182
0.981296
0.980112
0.97906
0.97839
0.97764
0.976961
0.976343
0.975755
0.975126
0.974444
0.973661
0.972734
0.97111
0.96748
0.960404
0.951322
0.945325
0.943551
0.945559
0.959665
0.971147
0.967272
0.935518
0.921098
0.91615
0.906837
0.894031
0.885866
0.882604
0.881537
0.881399
0.882206
0.885623
0.892856
0.902167
0.909093
0.912764
0.914264
0.914732
0.914774
0.913827
0.912054
0.908109
0.901802
0.897308
0.895275
0.894466
0.893855
0.894769
0.899144
0.9123
0.929214
0.937637
0.943659
0.953714
0.966792
0.978477
0.98734
0.992941
0.996172
0.997992
0.998976
0.999435
0.999567
0.999559
0.9994
0.998731
0.996263
0.987048
0.97294
0.963273
0.957631
0.955624
0.95545
0.955845
0.957628
0.962753
0.969762
0.975574
0.979953
0.98234
0.982686
0.981969
0.978489
0.965779
0.94305
0.929387
0.925222
0.925509
0.930886
0.950628
0.974964
0.986272
0.991777
0.994472
0.996074
0.996616
0.996485
0.995489
0.991439
0.977194
0.948088
0.825462
0.833616
0.82905
0.8155
0.797779
0.784412
0.778554
0.775989
0.774992
0.775226
0.77589
0.777108
0.778409
0.779826
0.78123
0.782832
0.785458
0.789955
0.796237
0.809229
0.824167
0.851051
0.887526
0.915377
0.931688
0.935397
0.932406
0.911
0.878882
0.843565
0.791352
0.773766
0.783382
0.816368
0.856074
0.913975
0.966231
0.98818
0.993702
0.993183
0.988627
0.986473
0.984936
0.972322
0.910988
0.87742
0.886269
0.907257
0.911982
0.911432
0.907718
0.906047
0.907841
0.916494
0.92359
0.933386
0.966522
0.989375
0.995636
0.997399
0.998041
0.99833
0.998582
0.998699
0.998638
0.998371
0.997809
0.996841
0.995286
0.99314
0.990999
0.989477
0.987904
0.985723
0.983413
0.981546
0.980176
0.978542
0.977382
0.976557
0.976039
0.975365
0.974706
0.973885
0.972933
0.971891
0.971339
0.971176
0.971743
0.972583
0.973349
0.973868
0.97384
0.97208
0.963846
0.950306
0.942465
0.941525
0.952369
0.969423
0.965424
0.931834
0.918147
0.911288
0.900674
0.891063
0.885699
0.883239
0.882403
0.882733
0.88507
0.890585
0.898819
0.905868
0.910555
0.913448
0.914945
0.91516
0.91475
0.913829
0.911416
0.906153
0.900941
0.897572
0.896828
0.896952
0.897183
0.899373
0.910781
0.928442
0.937359
0.943754
0.954982
0.968701
0.980648
0.988904
0.993909
0.99682
0.998439
0.999278
0.999632
0.999712
0.999685
0.999457
0.998533
0.995186
0.984119
0.971393
0.963133
0.9596
0.958942
0.959169
0.960821
0.967187
0.975176
0.979913
0.983152
0.985307
0.986045
0.986029
0.985606
0.983664
0.976291
0.953356
0.934001
0.926088
0.924642
0.926097
0.933965
0.955084
0.974117
0.985876
0.991891
0.995125
0.996777
0.997432
0.997338
0.99629
0.991442
0.972676
0.843137
0.833289
0.802361
0.778616
0.771587
0.769658
0.768832
0.768801
0.769003
0.769598
0.770317
0.771079
0.771805
0.772371
0.772685
0.773179
0.774086
0.775924
0.779507
0.787759
0.802777
0.831086
0.87939
0.916846
0.928311
0.92872
0.915475
0.876683
0.843646
0.789079
0.773055
0.786189
0.836119
0.861536
0.909648
0.962521
0.987386
0.994375
0.995105
0.993359
0.989911
0.989332
0.986221
0.962489
0.89416
0.873035
0.894096
0.909642
0.910938
0.909364
0.907539
0.907972
0.912906
0.921538
0.930388
0.949988
0.98185
0.993519
0.996751
0.997705
0.99807
0.998274
0.998378
0.998256
0.997805
0.996863
0.995026
0.99267
0.990515
0.988844
0.987352
0.985411
0.982799
0.980478
0.978996
0.977712
0.977097
0.976503
0.976205
0.975866
0.975587
0.975124
0.974459
0.973512
0.972191
0.970395
0.968174
0.965857
0.963785
0.962501
0.962744
0.96531
0.970341
0.974292
0.975856
0.973974
0.960563
0.942669
0.937756
0.943853
0.964349
0.963318
0.936431
0.918406
0.908991
0.90127
0.896643
0.89297
0.889778
0.887584
0.888398
0.891534
0.89778
0.903692
0.908472
0.911641
0.913623
0.914267
0.914287
0.913897
0.912115
0.907885
0.903604
0.900671
0.899005
0.898655
0.899198
0.90201
0.912904
0.930141
0.938274
0.945142
0.95776
0.97203
0.983609
0.991258
0.995644
0.99794
0.999054
0.999581
0.999777
0.999808
0.99975
0.999433
0.998254
0.994204
0.982125
0.970427
0.964042
0.961928
0.961814
0.962666
0.967011
0.975981
0.981645
0.98447
0.986126
0.987405
0.987929
0.987929
0.987722
0.986704
0.982401
0.964829
0.940481
0.928081
0.924771
0.92479
0.927658
0.938299
0.957426
0.973139
0.985009
0.991993
0.995672
0.997368
0.997952
0.997804
0.996341
0.988691
0.840845
0.803169
0.773787
0.769792
0.769469
0.770427
0.77133
0.771872
0.772219
0.772376
0.77247
0.77256
0.772577
0.772468
0.772075
0.771703
0.771973
0.774061
0.780107
0.792562
0.815954
0.859133
0.906173
0.918715
0.919307
0.903962
0.867414
0.818607
0.784332
0.777719
0.794265
0.85145
0.875601
0.90398
0.961893
0.986564
0.994509
0.996046
0.995462
0.993207
0.992207
0.9918
0.987342
0.958276
0.888637
0.871694
0.894177
0.907132
0.908444
0.907182
0.90671
0.908206
0.913728
0.923208
0.937647
0.967719
0.989011
0.995332
0.997093
0.997695
0.997928
0.997932
0.997587
0.996679
0.99487
0.99264
0.99033
0.988543
0.987178
0.985867
0.984166
0.98147
0.97917
0.978033
0.977363
0.976962
0.976784
0.976629
0.976487
0.97629
0.976041
0.975754
0.975503
0.975101
0.974145
0.972407
0.969717
0.966298
0.963057
0.959973
0.956776
0.953572
0.95199
0.956896
0.967499
0.975665
0.977835
0.971696
0.94865
0.936539
0.940433
0.957634
0.95877
0.945225
0.928034
0.913162
0.906139
0.901759
0.900134
0.899171
0.899516
0.900514
0.902883
0.906256
0.909139
0.91118
0.912696
0.913163
0.913096
0.912536
0.911071
0.908426
0.904942
0.902082
0.901588
0.901678
0.902306
0.90509
0.916361
0.932189
0.93921
0.947405
0.960947
0.97561
0.986718
0.99371
0.997401
0.998941
0.999574
0.999824
0.999891
0.999883
0.999779
0.999324
0.997697
0.992024
0.978672
0.968643
0.964151
0.963209
0.963618
0.966079
0.973202
0.980149
0.984627
0.986722
0.987897
0.988734
0.988951
0.988884
0.988685
0.988124
0.985741
0.974563
0.948185
0.931415
0.925415
0.924752
0.925726
0.93032
0.942551
0.959313
0.973838
0.98518
0.992561
0.996337
0.997901
0.998281
0.997965
0.99508
0.825168
0.780604
0.770079
0.77437
0.778243
0.777538
0.776644
0.776072
0.775768
0.775648
0.7756
0.775173
0.773783
0.77212
0.771721
0.772151
0.774499
0.781364
0.797473
0.831818
0.882424
0.900768
0.90479
0.900479
0.869956
0.81806
0.791367
0.786608
0.791831
0.822543
0.873091
0.892297
0.909463
0.954874
0.984556
0.993905
0.996334
0.996468
0.995452
0.994276
0.994099
0.993754
0.989499
0.961322
0.890908
0.867791
0.882572
0.900237
0.902752
0.902666
0.903522
0.906272
0.911722
0.922815
0.946378
0.979586
0.992285
0.995899
0.997039
0.997433
0.997408
0.996779
0.994953
0.992092
0.990307
0.988817
0.987315
0.98623
0.985299
0.983784
0.981405
0.978973
0.977858
0.977333
0.977077
0.976865
0.976745
0.976578
0.976288
0.975931
0.975752
0.975699
0.975675
0.975683
0.975693
0.975455
0.974206
0.970722
0.965798
0.961034
0.956626
0.952007
0.947254
0.942487
0.940924
0.95052
0.969444
0.979076
0.978895
0.958587
0.939259
0.939522
0.948626
0.953625
0.950673
0.94259
0.930244
0.919419
0.911666
0.908014
0.906585
0.906683
0.907346
0.908864
0.910349
0.911622
0.912456
0.912721
0.912656
0.912048
0.910904
0.90885
0.906137
0.904742
0.904344
0.904495
0.905492
0.909294
0.922573
0.935344
0.941292
0.950682
0.965729
0.980257
0.990443
0.995839
0.998308
0.999355
0.999766
0.999907
0.999931
0.999908
0.999753
0.999091
0.996623
0.987542
0.974499
0.967289
0.964589
0.964587
0.966214
0.972449
0.979426
0.984613
0.987841
0.989183
0.990337
0.990808
0.990753
0.990408
0.989815
0.989124
0.987435
0.980536
0.956727
0.936131
0.927022
0.925112
0.925587
0.927851
0.933684
0.946449
0.962242
0.976255
0.986864
0.993723
0.997113
0.998338
0.998462
0.997549
0.81384
0.775664
0.776297
0.782887
0.780621
0.777649
0.775987
0.775073
0.774798
0.77444
0.77324
0.772974
0.773033
0.773547
0.776379
0.784862
0.804596
0.842643
0.867476
0.878089
0.880921
0.875805
0.838955
0.803709
0.795563
0.795854
0.806854
0.833792
0.869825
0.896171
0.906862
0.916617
0.940559
0.976505
0.990141
0.995436
0.99676
0.99664
0.995601
0.995129
0.995198
0.995142
0.992825
0.975845
0.911264
0.865637
0.866493
0.884938
0.890228
0.891943
0.893392
0.89738
0.904498
0.923575
0.95858
0.985251
0.993307
0.995818
0.996615
0.996639
0.995793
0.993293
0.98997
0.988062
0.987083
0.986286
0.985452
0.984755
0.983676
0.981664
0.979201
0.97791
0.977359
0.977099
0.976821
0.976497
0.975965
0.974942
0.974155
0.97389
0.973965
0.974583
0.975309
0.975802
0.976138
0.976517
0.976769
0.976413
0.973385
0.966923
0.960069
0.953198
0.946829
0.940353
0.934133
0.928291
0.930605
0.953746
0.976063
0.98203
0.975496
0.951464
0.941987
0.944017
0.948979
0.949147
0.947526
0.944112
0.93759
0.930462
0.924122
0.918745
0.915848
0.914732
0.914206
0.914265
0.914361
0.914334
0.913941
0.912779
0.911905
0.910203
0.908406
0.907914
0.908056
0.908733
0.910603
0.915881
0.929506
0.937551
0.943629
0.955637
0.971623
0.985148
0.993373
0.997388
0.999025
0.999646
0.999878
0.999949
0.999954
0.999917
0.999694
0.998745
0.995021
0.983021
0.972439
0.967242
0.966386
0.967223
0.971882
0.980723
0.986441
0.989914
0.991738
0.992314
0.992808
0.992943
0.992811
0.992396
0.991382
0.990467
0.988837
0.98395
0.964536
0.940922
0.929556
0.926245
0.926175
0.927512
0.930869
0.937233
0.950874
0.966815
0.980171
0.989605
0.995291
0.997873
0.998626
0.998432
0.810212
0.77558
0.782414
0.783607
0.778652
0.775417
0.773643
0.772671
0.772624
0.773752
0.77536
0.777566
0.784142
0.799754
0.823558
0.839191
0.849529
0.852779
0.852264
0.830236
0.811639
0.805293
0.803818
0.811658
0.832713
0.858302
0.886889
0.902017
0.907505
0.910469
0.914431
0.921574
0.941508
0.973206
0.987751
0.994388
0.99657
0.996784
0.996147
0.995543
0.995563
0.995708
0.99503
0.988681
0.953715
0.876673
0.859401
0.865568
0.874798
0.878078
0.879919
0.885568
0.898369
0.92568
0.968107
0.98683
0.993146
0.995161
0.99545
0.994242
0.991514
0.98878
0.98654
0.985551
0.985081
0.984744
0.984299
0.983642
0.982413
0.980266
0.978433
0.977588
0.977148
0.976767
0.976165
0.975086
0.9736
0.972868
0.972688
0.972922
0.973313
0.97412
0.975118
0.975879
0.976573
0.97717
0.977818
0.978412
0.978628
0.977023
0.970901
0.961717
0.950431
0.940862
0.933914
0.925652
0.91662
0.915431
0.931259
0.967661
0.980564
0.979046
0.966875
0.94985
0.94438
0.944533
0.946134
0.94653
0.945992
0.944651
0.942425
0.939222
0.93575
0.932174
0.927898
0.924828
0.922359
0.920967
0.918963
0.91783
0.916536
0.914117
0.913161
0.913191
0.913603
0.914868
0.917332
0.923536
0.933739
0.939834
0.948574
0.962957
0.978257
0.989599
0.995661
0.998331
0.999423
0.999817
0.999944
0.999973
0.999969
0.999913
0.999607
0.998297
0.992953
0.980016
0.971618
0.968762
0.968864
0.971363
0.979916
0.986981
0.990536
0.992404
0.993414
0.993695
0.993834
0.994268
0.994273
0.993945
0.992889
0.991829
0.990267
0.986356
0.970995
0.945727
0.93229
0.928102
0.927664
0.928202
0.930185
0.933787
0.941283
0.957372
0.973073
0.984969
0.992633
0.996822
0.998492
0.998727
0.80906
0.779014
0.783696
0.783522
0.777969
0.776303
0.776194
0.777618
0.781579
0.788259
0.797297
0.804973
0.81481
0.82356
0.827545
0.829026
0.826803
0.822315
0.82043
0.821117
0.832019
0.856102
0.883954
0.903972
0.920028
0.9247
0.9247
0.921342
0.918392
0.916876
0.917475
0.919241
0.925813
0.94614
0.970174
0.985808
0.993697
0.996318
0.996537
0.995956
0.995661
0.995801
0.995763
0.994003
0.98245
0.933703
0.864261
0.857027
0.859823
0.863753
0.86623
0.873007
0.889908
0.922978
0.967887
0.986198
0.991838
0.992986
0.991965
0.989427
0.987531
0.985713
0.984434
0.984
0.983843
0.983752
0.983529
0.982892
0.981446
0.9794
0.977815
0.977095
0.976565
0.975778
0.974602
0.973462
0.972565
0.972441
0.972625
0.973082
0.97361
0.97444
0.975506
0.976741
0.977923
0.979015
0.98012
0.980696
0.981247
0.981891
0.981383
0.977486
0.96701
0.950486
0.936863
0.929176
0.917326
0.905072
0.901893
0.909899
0.948499
0.974883
0.97941
0.976011
0.962172
0.95001
0.945133
0.94406
0.943786
0.943976
0.943823
0.94341
0.942555
0.940413
0.939267
0.936828
0.934759
0.931933
0.929404
0.927697
0.924465
0.921785
0.920999
0.921046
0.921504
0.922978
0.92502
0.929889
0.937153
0.944045
0.955644
0.97114
0.984707
0.993137
0.997491
0.999224
0.999762
0.999929
0.999978
0.999986
0.999976
0.999899
0.999496
0.997723
0.990156
0.978361
0.972148
0.970936
0.971865
0.977657
0.986044
0.990381
0.99266
0.993897
0.994318
0.994158
0.994157
0.994535
0.995336
0.995264
0.994442
0.993063
0.991538
0.988186
0.976211
0.950434
0.93515
0.929783
0.928957
0.929212
0.930338
0.932543
0.936936
0.948133
0.965651
0.979998
0.989691
0.995309
0.998047
0.998845
0.809512
0.780215
0.78483
0.785629
0.784039
0.784036
0.786046
0.790536
0.797558
0.805694
0.81249
0.817841
0.822515
0.827646
0.830078
0.832646
0.838716
0.854649
0.886353
0.913585
0.935555
0.946944
0.951396
0.954488
0.958223
0.96184
0.965271
0.966519
0.959887
0.949245
0.934859
0.924503
0.919961
0.920158
0.93092
0.957341
0.9799
0.991512
0.995701
0.996317
0.995953
0.995762
0.995822
0.995536
0.99225
0.975391
0.912148
0.862131
0.855506
0.85502
0.856274
0.860477
0.875591
0.914078
0.964319
0.983853
0.987955
0.988505
0.987595
0.985663
0.984722
0.983887
0.983272
0.983107
0.983102
0.983079
0.982857
0.982182
0.980743
0.97902
0.977803
0.97705
0.976377
0.975486
0.974556
0.973488
0.972933
0.973155
0.973795
0.974818
0.975715
0.976749
0.977862
0.979127
0.980554
0.982028
0.984105
0.985841
0.98692
0.988242
0.988721
0.98856
0.986731
0.978311
0.956252
0.939692
0.927994
0.910224
0.894076
0.889422
0.893915
0.925293
0.963994
0.978227
0.979227
0.975196
0.960493
0.949533
0.945227
0.942528
0.941458
0.940925
0.940416
0.939838
0.938646
0.937327
0.936478
0.934729
0.933264
0.931944
0.929993
0.928186
0.927406
0.927322
0.927445
0.928034
0.929625
0.934158
0.941372
0.951328
0.965792
0.980557
0.991141
0.996772
0.998928
0.999667
0.999901
0.999972
0.999991
0.999992
0.999978
0.99988
0.999376
0.997074
0.987952
0.977691
0.973661
0.973498
0.975771
0.984038
0.990034
0.993238
0.994901
0.995355
0.99474
0.994052
0.994021
0.994358
0.995752
0.996126
0.995803
0.994421
0.992784
0.989669
0.979961
0.954851
0.937985
0.931412
0.929976
0.930018
0.930638
0.932282
0.935159
0.941754
0.958129
0.974742
0.98652
0.993602
0.997313
0.998746
0.81345
0.781593
0.786907
0.789916
0.788354
0.788912
0.79329
0.798135
0.80336
0.812091
0.81915
0.823942
0.830563
0.839329
0.850964
0.876934
0.909032
0.932385
0.942367
0.945952
0.946814
0.944766
0.943199
0.943774
0.948252
0.957056
0.969095
0.98037
0.986211
0.989456
0.986777
0.972084
0.948037
0.924726
0.916207
0.918314
0.939752
0.971428
0.988515
0.994911
0.996093
0.99586
0.995704
0.99568
0.994964
0.989633
0.966949
0.894164
0.860576
0.854391
0.852886
0.85413
0.862879
0.893922
0.955403
0.978949
0.984031
0.984897
0.984508
0.983243
0.982789
0.982717
0.982653
0.982639
0.982666
0.982663
0.982475
0.981798
0.980441
0.979043
0.977897
0.977145
0.976486
0.975662
0.974886
0.97427
0.974551
0.975448
0.976688
0.977411
0.978162
0.979288
0.980658
0.982473
0.984795
0.987218
0.989855
0.992368
0.994791
0.996632
0.997268
0.997185
0.996684
0.995087
0.989572
0.969878
0.949635
0.930239
0.904834
0.884976
0.879637
0.882918
0.909361
0.955873
0.975832
0.981405
0.980501
0.974724
0.959725
0.949427
0.944334
0.941649
0.93944
0.938198
0.936858
0.936036
0.935372