/*--------------------------------*- C++ -*----------------------------------*\
  =========                 |
  \\      /  F ield         | OpenFOAM: The Open Source CFD Toolbox
   \\    /   O peration     | Website:  https://openfoam.org
    \\  /    A nd           | Version:  6
     \\/     M anipulation  |
\*---------------------------------------------------------------------------*/
FoamFile
{
    version     2.0;
    format      ascii;
    class       volVectorField;
    location    "0.1";
    object      U;
}
// * * * * * * * * * * * * * * * * * * * * * * * * * * * * * * * * * * * * * //

dimensions      [0 1 -1 0 0 0 0];

internalField   nonuniform List<vector> 
12225
(
(9.88974 -0.0300989 0)
(9.67701 0.0286177 0)
(9.38402 0.0679372 0)
(9.05684 0.0656824 0)
(8.69073 0.0529458 0)
(8.33303 0.0382743 0)
(8.03973 0.0269461 0)
(7.8245 0.0304897 0)
(7.63895 0.0524997 0)
(7.42729 0.0788576 0)
(7.16399 0.091943 0)
(6.87722 0.0820437 0)
(6.60525 0.0609571 0)
(6.35975 0.0400645 0)
(6.13564 0.0317698 0)
(5.9151 0.0280321 0)
(5.6761 0.0520206 0)
(5.39844 0.0428672 0)
(9.95144 0.0354186 0)
(9.9416 0.0752101 0)
(9.98634 0.063862 0)
(10.0597 0.0769224 0)
(10.0777 0.10106 0)
(10.0372 0.110596 0)
(9.98057 0.0951879 0)
(9.95517 0.0675603 0)
(9.97967 0.0495931 0)
(10.0367 0.0514132 0)
(10.0871 0.0680874 0)
(10.0952 0.0867134 0)
(10.045 0.100159 0)
(9.93601 0.110576 0)
(9.79117 0.119817 0)
(9.62894 0.129828 0)
(9.46966 0.150097 0)
(9.31926 0.182797 0)
(9.95046 -0.0874467 0)
(10.015 0.0206557 0)
(9.98167 0.0672821 0)
(10.0239 0.078143 0)
(10.0476 0.0815218 0)
(10.0324 0.077746 0)
(10.001 0.0606563 0)
(9.98358 0.038286 0)
(10.0076 0.0283907 0)
(10.0793 0.0399896 0)
(10.177 0.0687536 0)
(10.2639 0.101176 0)
(10.3113 0.128009 0)
(10.3091 0.14688 0)
(10.269 0.158341 0)
(10.2056 0.166342 0)
(10.1341 0.179941 0)
(10.0654 0.201852 0)
(9.84315 0.0472613 0)
(9.89365 0.0389663 0)
(9.95923 0.0343743 0)
(10.0177 0.0580755 0)
(10.0533 0.0997236 0)
(10.0651 0.121292 0)
(10.0418 0.105863 0)
(9.99128 0.0675963 0)
(9.94823 0.0321336 0)
(9.94597 0.016576 0)
(9.99279 0.0249434 0)
(10.0714 0.0510101 0)
(10.1508 0.0854347 0)
(10.206 0.121853 0)
(10.224 0.156292 0)
(10.2074 0.186312 0)
(10.1629 0.215745 0)
(10.1116 0.24645 0)
(9.82497 -0.0262835 0)
(9.91872 0.0160217 0)
(9.98537 0.0520825 0)
(10.0152 0.0464522 0)
(10.0365 0.0536631 0)
(10.0586 0.0764802 0)
(10.0672 0.0851451 0)
(10.0522 0.0678629 0)
(10.0154 0.0368587 0)
(9.96877 0.0115698 0)
(9.93112 0.00652294 0)
(9.91778 0.026008 0)
(9.92948 0.0640548 0)
(9.95536 0.111593 0)
(9.98349 0.1586 0)
(10.0039 0.198434 0)
(10.015 0.232137 0)
(10.0152 0.262853 0)
(10.0678 0.0477157 0)
(10.0746 0.009598 0)
(10.0439 0.0288992 0)
(10.0469 0.0580703 0)
(10.0349 0.0854241 0)
(10.02 0.102609 0)
(10.0243 0.0988948 0)
(10.0493 0.0796475 0)
(10.0786 0.0599636 0)
(10.0917 0.049711 0)
(10.0803 0.0506549 0)
(10.0545 0.0616839 0)
(10.0317 0.0809045 0)
(10.0241 0.107563 0)
(10.0352 0.13975 0)
(10.0597 0.174048 0)
(10.0891 0.209763 0)
(10.1167 0.245486 0)
(9.98022 0.0351381 0)
(10.0313 0.0354353 0)
(10.0748 0.0387087 0)
(10.0998 0.0409661 0)
(10.0879 0.0708369 0)
(10.0698 0.0918816 0)
(10.0599 0.0815417 0)
(10.0544 0.0519339 0)
(10.0535 0.0252723 0)
(10.0614 0.0151934 0)
(10.0787 0.023261 0)
(10.099 0.0449792 0)
(10.1132 0.0742175 0)
(10.1135 0.107261 0)
(10.0981 0.141372 0)
(10.0715 0.175098 0)
(10.0382 0.208194 0)
(10.0082 0.241504 0)
(10.2375 0.0567997 0)
(10.3658 -0.0193001 0)
(10.2993 0.0355521 0)
(10.1683 0.0727101 0)
(10.1055 0.102122 0)
(10.117 0.121127 0)
(10.1503 0.114162 0)
(10.1607 0.0868031 0)
(10.1352 0.0556254 0)
(10.0861 0.0339731 0)
(10.0353 0.0280349 0)
(9.99924 0.0393985 0)
(9.98636 0.0660388 0)
(9.99149 0.104 0)
(10.0122 0.147052 0)
(10.0381 0.189466 0)
(10.0726 0.226527 0)
(10.1077 0.258614 0)
(10.0692 0.0406758 0)
(9.9237 0.0172422 0)
(9.97055 0.0585249 0)
(10.0707 0.0637709 0)
(10.1456 0.0513681 0)
(10.2132 0.0402208 0)
(10.2739 0.0371363 0)
(10.3133 0.0440922 0)
(10.3267 0.0561358 0)
(10.3183 0.0667874 0)
(10.292 0.0743613 0)
(10.2513 0.0824047 0)
(10.2022 0.0965142 0)
(10.1546 0.118152 0)
(10.1185 0.145182 0)
(10.1034 0.173966 0)
(10.1095 0.199157 0)
(10.1397 0.224769 0)
(10.0809 0.0210163 0)
(10.1393 0.0259952 0)
(10.1606 0.0596285 0)
(10.1528 0.0873628 0)
(10.1402 0.0984735 0)
(10.1236 0.0965052 0)
(10.0892 0.0843221 0)
(10.0369 0.0675746 0)
(9.98582 0.0540364 0)
(9.95213 0.0509599 0)
(9.93838 0.0610544 0)
(9.93769 0.0817412 0)
(9.94355 0.106437 0)
(9.9555 0.128859 0)
(9.97342 0.143977 0)
(10.0014 0.152915 0)
(10.0378 0.156665 0)
(10.0821 0.163153 0)
(9.88577 -0.0207519 0)
(9.85076 0.0162244 0)
(9.89877 -0.00407911 0)
(9.99111 0.00489551 0)
(10.0738 0.0319482 0)
(10.1157 0.0623412 0)
(10.1221 0.0907205 0)
(10.1174 0.106452 0)
(10.1182 0.102635 0)
(10.1235 0.0858173 0)
(10.1279 0.0706197 0)
(10.1333 0.0692837 0)
(10.1474 0.084062 0)
(10.1747 0.110265 0)
(10.2141 0.139429 0)
(10.2542 0.16556 0)
(10.2895 0.186142 0)
(10.3051 0.201795 0)
(9.9734 -0.060066 0)
(10.0623 -0.0519848 0)
(10.1119 -0.00348644 0)
(10.1618 0.0313199 0)
(10.1736 0.0499898 0)
(10.1438 0.0614485 0)
(10.1076 0.0642019 0)
(10.0941 0.060197 0)
(10.1034 0.0595982 0)
(10.1172 0.0693219 0)
(10.1198 0.0850973 0)
(10.1108 0.0969034 0)
(10.1023 0.0986303 0)
(10.1039 0.0918217 0)
(10.1225 0.0843878 0)
(10.1573 0.0844702 0)
(10.2032 0.0956165 0)
(10.2604 0.120352 0)
(9.97776 0.117271 0)
(9.94085 0.0185254 0)
(9.94333 -0.0164337 0)
(9.97862 -0.015155 0)
(10.0286 0.0310942 0)
(10.0689 0.0861386 0)
(10.0824 0.10966 0)
(10.0793 0.0957647 0)
(10.0882 0.0638835 0)
(10.1266 0.0364583 0)
(10.1864 0.0264277 0)
(10.2452 0.0348084 0)
(10.2787 0.0551431 0)
(10.2777 0.0788004 0)
(10.2447 0.0979938 0)
(10.203 0.11234 0)
(10.165 0.11964 0)
(10.1548 0.127698 0)
(10.0958 0.0171455 0)
(10.1225 -0.0326247 0)
(10.0321 -0.0222292 0)
(9.92976 0.00449103 0)
(9.86291 0.038526 0)
(9.86821 0.0688552 0)
(9.94064 0.0828326 0)
(10.0444 0.0777304 0)
(10.141 0.0629504 0)
(10.2048 0.052598 0)
(10.2317 0.0570602 0)
(10.2352 0.0782079 0)
(10.2314 0.108685 0)
(10.2302 0.137245 0)
(10.2329 0.153369 0)
(10.2373 0.154871 0)
(10.2413 0.143974 0)
(10.2409 0.129121 0)
(10.0551 -0.0751428 0)
(9.99373 0.00626655 0)
(10.0041 0.0754261 0)
(10.0178 0.0786822 0)
(10.0062 0.046665 0)
(9.9722 0.00344269 0)
(9.94485 -0.0408563 0)
(9.94961 -0.0752367 0)
(9.98336 -0.0869124 0)
(10.0217 -0.071132 0)
(10.0444 -0.0353557 0)
(10.0504 0.00744818 0)
(10.0511 0.0449992 0)
(10.0598 0.0714829 0)
(10.0812 0.086466 0)
(10.1159 0.0941951 0)
(10.1567 0.0989903 0)
(10.2011 0.104941 0)
(9.80592 0.164546 0)
(9.92456 0.0413145 0)
(10.0208 -0.0658118 0)
(10.0466 -0.0218209 0)
(10.057 0.0698764 0)
(10.061 0.106693 0)
(10.0647 0.0767726 0)
(10.0691 0.0285685 0)
(10.0681 0.00595569 0)
(10.0573 0.0185348 0)
(10.0411 0.0495765 0)
(10.03 0.0780874 0)
(10.0302 0.0913851 0)
(10.0404 0.088043 0)
(10.0562 0.0743024 0)
(10.0727 0.0585541 0)
(10.0884 0.0465929 0)
(10.1015 0.0426265 0)
(10.5347 0.0819398 0)
(10.2888 0.0433768 0)
(10.1346 0.00966914 0)
(10.052 0.0612525 0)
(10.0347 0.0927362 0)
(10.0493 0.0730551 0)
(10.0538 0.0249182 0)
(10.0483 -0.0184826 0)
(10.0514 -0.0372049 0)
(10.0694 -0.029188 0)
(10.0984 -0.00397276 0)
(10.132 0.0255763 0)
(10.1658 0.0493993 0)
(10.1938 0.0619531 0)
(10.2149 0.0634565 0)
(10.2293 0.0577313 0)
(10.2408 0.0495068 0)
(10.2519 0.0434008 0)
(9.88873 0.060039 0)
(9.84198 0.221682 0)
(9.87721 0.14458 0)
(9.9183 0.0482738 0)
(9.96069 0.00883563 0)
(10.0175 -0.00770476 0)
(10.0618 -0.0296183 0)
(10.0848 -0.0543908 0)
(10.0983 -0.0687991 0)
(10.1121 -0.0674895 0)
(10.1302 -0.054996 0)
(10.1525 -0.039024 0)
(10.1746 -0.0244821 0)
(10.19 -0.011511 0)
(10.1935 -6.78633e-05 0)
(10.1883 0.0114649 0)
(10.1771 0.0202387 0)
(10.1704 0.0251607 0)
(10.2205 -0.0558635 0)
(10.2489 0.0298197 0)
(10.2364 0.0474363 0)
(10.19 0.0134024 0)
(10.1295 0.00269461 0)
(10.0738 0.00968406 0)
(10.0283 0.00890532 0)
(9.99569 -0.00917574 0)
(9.97874 -0.0390775 0)
(9.97328 -0.0670758 0)
(9.97325 -0.0773942 0)
(9.97639 -0.0604987 0)
(9.98133 -0.0199497 0)
(9.98735 0.0311174 0)
(9.99344 0.0721262 0)
(10.001 0.0891976 0)
(10.0098 0.0749167 0)
(10.0208 0.0310431 0)
(9.96432 0.113652 0)
(9.95497 0.130963 0)
(9.97042 0.134963 0)
(10.0025 0.134253 0)
(10.0382 0.120832 0)
(10.0916 0.0911777 0)
(10.1584 0.0440899 0)
(10.2135 -0.00535212 0)
(10.2327 -0.038663 0)
(10.2062 -0.0501402 0)
(10.1458 -0.046396 0)
(10.0779 -0.0365394 0)
(10.0258 -0.0266534 0)
(10.0003 -0.0184832 0)
(10.0018 -0.0122843 0)
(10.021 -0.00895362 0)
(10.0507 -0.00903319 0)
(10.0759 -0.0148397 0)
(10.0167 0.0480082 0)
(10.1271 0.030944 0)
(10.1812 0.0383471 0)
(10.2292 0.0337606 0)
(10.2456 -0.00700183 0)
(10.2423 -0.0612692 0)
(10.2292 -0.0917871 0)
(10.2095 -0.0760617 0)
(10.1832 -0.0210328 0)
(10.1526 0.0436215 0)
(10.1283 0.0872538 0)
(10.1232 0.0956728 0)
(10.1421 0.0735945 0)
(10.1797 0.0356291 0)
(10.2278 -0.00322593 0)
(10.2765 -0.0356348 0)
(10.3195 -0.0589008 0)
(10.3485 -0.0768071 0)
(10.0905 0.00945796 0)
(10.0862 -0.00866295 0)
(10.0152 0.0531731 0)
(9.9666 0.0881798 0)
(10.0039 0.0686468 0)
(10.0795 0.0267058 0)
(10.1302 0.00167786 0)
(10.1357 0.0121423 0)
(10.1191 0.0424145 0)
(10.113 0.0608237 0)
(10.1365 0.0468581 0)
(10.1872 0.00205434 0)
(10.2463 -0.0563963 0)
(10.2914 -0.108921 0)
(10.3076 -0.140934 0)
(10.295 -0.147771 0)
(10.26 -0.130879 0)
(10.2177 -0.09893 0)
(10.0198 -0.0500207 0)
(10.0103 -0.0386254 0)
(10.0174 0.00452517 0)
(10.0763 -0.019025 0)
(10.1588 -0.0920746 0)
(10.2044 -0.12402 0)
(10.1916 -0.0909863 0)
(10.1544 -0.0332186 0)
(10.1302 -0.00100689 0)
(10.1297 -0.0137193 0)
(10.1431 -0.0555212 0)
(10.1574 -0.0954816 0)
(10.1642 -0.108981 0)
(10.1605 -0.0877192 0)
(10.1491 -0.0422547 0)
(10.1345 0.00754262 0)
(10.1227 0.0435733 0)
(10.1169 0.0516299 0)
(9.90384 0.0639463 0)
(9.83913 0.125188 0)
(9.88794 0.122797 0)
(9.96567 0.0546957 0)
(9.98761 -0.0209765 0)
(9.95929 -0.0466821 0)
(9.9404 -0.0117658 0)
(9.96612 0.0460896 0)
(10.0212 0.0839008 0)
(10.0702 0.084375 0)
(10.0913 0.0537733 0)
(10.087 0.00756777 0)
(10.0746 -0.0380094 0)
(10.0704 -0.072292 0)
(10.0826 -0.0906217 0)
(10.1087 -0.0949247 0)
(10.1425 -0.089701 0)
(10.1737 -0.0784083 0)
(9.97615 -0.0925257 0)
(9.99327 -0.142441 0)
(10.0524 -0.134365 0)
(10.0962 -0.114387 0)
(10.0785 -0.0730321 0)
(10.0299 -0.0538374 0)
(9.99505 -0.0633478 0)
(9.9946 -0.079356 0)
(10.027 -0.0852316 0)
(10.0761 -0.0812591 0)
(10.1202 -0.0769376 0)
(10.1417 -0.0787347 0)
(10.1341 -0.0847035 0)
(10.102 -0.0866211 0)
(10.0563 -0.0786556 0)
(10.0114 -0.0613281 0)
(9.9765 -0.0397719 0)
(9.96043 -0.021788 0)
(10.0472 0.0408718 0)
(10.0522 0.0423822 0)
(9.97651 0.0395665 0)
(9.91115 0.0216102 0)
(9.91213 0.00123925 0)
(9.96158 -0.0133406 0)
(10.021 -0.0130521 0)
(10.0649 -0.00539385 0)
(10.0979 -0.00468351 0)
(10.1346 -0.0154849 0)
(10.1759 -0.0306066 0)
(10.2087 -0.0404546 0)
(10.2182 -0.0413831 0)
(10.1996 -0.036213 0)
(10.1615 -0.0313573 0)
(10.1201 -0.0315436 0)
(10.0895 -0.0395082 0)
(10.0791 -0.0542053 0)
(9.99615 -0.0830654 0)
(9.87754 -0.0322384 0)
(9.89603 -0.0408421 0)
(9.93396 -0.0566515 0)
(9.97055 -0.0835843 0)
(10.0095 -0.103229 0)
(10.0568 -0.104261 0)
(10.1039 -0.0954773 0)
(10.1382 -0.08905 0)
(10.1548 -0.0865776 0)
(10.1567 -0.0801021 0)
(10.1509 -0.0624722 0)
(10.1442 -0.0353047 0)
(10.141 -0.00741368 0)
(10.1432 0.0104686 0)
(10.1506 0.0125396 0)
(10.1625 -0.00194128 0)
(10.1751 -0.028565 0)
(10.2211 0.081873 0)
(10.131 0.0449776 0)
(10.1116 0.0135758 0)
(10.1766 -0.0159084 0)
(10.2464 -0.0542919 0)
(10.2398 -0.0795223 0)
(10.1769 -0.0814807 0)
(10.115 -0.0702627 0)
(10.0823 -0.0597747 0)
(10.0718 -0.0558185 0)
(10.0678 -0.0555189 0)
(10.0653 -0.0539627 0)
(10.0702 -0.0495683 0)
(10.0887 -0.044686 0)
(10.1205 -0.0429256 0)
(10.1574 -0.0462488 0)
(10.1904 -0.0545597 0)
(10.2081 -0.0655004 0)
(9.96575 0.0526643 0)
(10.1204 0.011438 0)
(10.1642 -0.0474481 0)
(10.23 -0.0698095 0)
(10.2427 -0.0667996 0)
(10.1876 -0.0522576 0)
(10.1232 -0.0461188 0)
(10.0887 -0.0560231 0)
(10.0792 -0.0738073 0)
(10.0753 -0.0868391 0)
(10.0673 -0.0878323 0)
(10.0596 -0.0776134 0)
(10.06 -0.0624034 0)
(10.0725 -0.0487178 0)
(10.0927 -0.0404575 0)
(10.1127 -0.0386023 0)
(10.1243 -0.0417352 0)
(10.1232 -0.0491289 0)
(9.82783 -0.010636 0)
(9.84942 -0.00969445 0)
(9.77729 -0.0475411 0)
(9.58573 -0.0827178 0)
(9.35229 -0.081142 0)
(9.16174 -0.0548657 0)
(9.02397 -0.0341535 0)
(8.89662 -0.0278809 0)
(8.74919 -0.0271629 0)
(8.58533 -0.0250814 0)
(8.4237 -0.0233045 0)
(8.27778 -0.0259479 0)
(8.14866 -0.033638 0)
(8.03207 -0.0427541 0)
(7.92305 -0.0491408 0)
(7.81998 -0.0506759 0)
(7.72107 -0.0480667 0)
(7.62579 -0.0442006 0)
(-0.10012 0.103702 -4.80283e-20)
(-0.297217 0.0840618 4.76515e-20)
(-0.496765 0.105243 0)
(-0.64478 0.0511277 0)
(-0.66409 -0.0485564 0)
(-0.601529 -0.124105 -4.62201e-20)
(-0.493315 -0.172291 0)
(-0.343369 -0.196306 0)
(-0.181717 -0.196108 0)
(-0.0170354 -0.183503 0)
(0.145886 -0.165523 4.44243e-20)
(0.30134 -0.145323 0)
(0.442823 -0.122904 0)
(0.565594 -0.0982759 0)
(0.668634 -0.0736359 0)
(0.753286 -0.0503186 4.25906e-20)
(0.820361 -0.0277886 0)
(0.870012 -0.00530866 0)
(0.902297 0.0170446 0)
(0.917978 0.0420022 0)
(0.910095 0.0690947 0)
(0.883781 0.104195 0)
(0.825267 0.140841 0)
(0.749202 0.172572 3.97371e-20)
(0.622441 0.249714 -3.93903e-20)
(0.402938 0.243386 3.90562e-20)
(0.263724 0.0281554 3.87325e-20)
(0.245949 -0.186497 0)
(0.23804 -0.290915 0)
(0.218391 -0.327158 -3.76972e-20)
(0.303763 -0.324387 -3.73374e-20)
(0.439431 -0.26069 0)
(0.538305 -0.177729 0)
(0.624706 -0.110709 -3.62842e-20)
(0.721989 -0.0778636 0)
(0.834637 -0.0966551 0)
(0.985352 -0.155554 3.52525e-20)
(1.18491 -0.204244 0)
(1.40878 -0.203604 3.45944e-20)
(1.6133 -0.165184 6.85618e-20)
(1.75423 -0.139316 0)
(1.82672 -0.162987 0)
(1.87312 -0.201698 0)
(1.91145 -0.169328 0)
(1.92488 -0.0422344 0)
(1.9119 0.092454 6.50039e-20)
(1.89488 0.151657 6.44369e-20)
(1.89015 0.137226 6.3871e-20)
(1.90916 0.0941323 0)
(1.94594 0.058318 -6.27331e-20)
(1.98391 0.0437061 0)
(2.0004 0.0505804 6.15939e-20)
(1.97107 0.0755327 6.10201e-20)
(1.88016 0.112902 0)
(1.72661 0.153457 0)
(1.52639 0.17954 0)
(1.31356 0.158891 5.88181e-20)
(1.17227 0.087562 0)
(1.18058 -0.00443336 0)
(1.26433 -0.0796225 0)
(1.34106 -0.136114 0)
(1.28174 -0.0997882 0)
(1.03319 0.0117277 0)
(0.511377 0.341095 0)
(-0.391265 0.641689 0)
(-1.14467 0.407263 -5.49238e-20)
(-1.5953 0.339588 0)
(-2.09959 0.297853 0)
(-2.50742 0.21033 5.40505e-20)
(-2.87534 0.2188 5.3793e-20)
(-3.25306 0.198327 0)
(-3.59718 0.172801 -5.32745e-20)
(-3.92748 0.163869 5.29998e-20)
(-4.24378 0.151133 0)
(-4.54408 0.136384 -5.23833e-20)
(-4.82599 0.124404 0)
(-5.08597 0.113671 0)
(-5.31995 0.101077 5.11916e-20)
(-5.52258 0.087722 0)
(-5.68936 0.0744294 -5.01537e-20)
(-5.81573 0.0598755 0)
(-5.89632 0.0422619 4.88974e-20)
(-5.92644 0.0211882 4.81922e-20)
(-5.90351 -0.00209766 4.74387e-20)
(-5.8302 -0.026457 9.32973e-20)
(-5.70629 -0.0511808 -9.16627e-20)
(-5.53474 -0.0752723 0)
(-5.32032 -0.0976163 0)
(-5.06825 -0.117261 0)
(-4.78301 -0.134299 -8.50064e-20)
(-4.46785 -0.149464 -8.34156e-20)
(-4.1239 -0.163318 8.18892e-20)
(-3.74967 -0.176887 0)
(-3.33939 -0.19259 -7.90876e-20)
(-2.87961 -0.21415 -7.78468e-20)
(-2.34553 -0.246801 -7.675e-20)
(-1.699 -0.297606 0)
(-0.898203 -0.370075 0)
(0.066297 -0.456089 0)
(1.12876 -0.522633 -7.53538e-20)
(2.13185 -0.513178 0)
(2.87299 -0.388726 0)
(3.18129 -0.158522 7.64602e-20)
(2.91063 0.11611 0)
(2.04049 0.401958 0)
(0.728388 0.619158 7.06057e-20)
(-0.595548 0.281919 0)
(-0.922329 0.309176 0)
(-5.09048 1.8575 -6.581e-20)
(-9.5252 1.04687 -6.73874e-20)
(-10.5009 0.492681 0)
(-12.1115 0.447468 7.06015e-20)
(-12.6915 0.147112 0)
(-13.1999 0.150658 -7.19734e-20)
(-13.4584 0.0272368 0)
(-13.5099 0.00703321 -7.14483e-20)
(-13.5004 -0.0421654 -7.06142e-20)
(-13.3385 -0.0730647 0)
(-13.1398 -0.099635 0)
(-12.8318 -0.128645 0)
(-12.4822 -0.148213 0)
(-12.0604 -0.170699 0)
(-11.6014 -0.18651 0)
(-11.1008 -0.202206 0)
(-10.5741 -0.214379 -5.70614e-20)
(-10.019 -0.225748 5.52046e-20)
(-9.42833 -0.237814 0)
(-8.78625 -0.252939 0)
(-8.07284 -0.273045 0)
(-7.27271 -0.297428 0)
(-6.37778 -0.322788 9.15867e-20)
(-5.39583 -0.342671 0)
(-4.35217 -0.350477 -8.38974e-20)
(-3.28515 -0.342984 8.05713e-20)
(-2.23592 -0.321426 0)
(-1.2437 -0.289022 0)
(-0.341169 -0.249649 0)
(0.452231 -0.209618 -7.25002e-20)
(1.1352 -0.177047 -7.14063e-20)
(1.72366 -0.156004 0)
(2.24445 -0.145321 -6.9624e-20)
(2.72603 -0.140708 -6.87904e-20)
(3.18649 -0.137228 6.79781e-20)
(3.63084 -0.13213 0)
(4.0567 -0.125689 0)
(4.46335 -0.119971 6.57979e-20)
(4.85697 -0.116995 0)
(5.2504 -0.118019 0)
(5.65891 -0.122717 0)
(6.09392 -0.129034 0)
(6.55915 -0.13444 -6.2612e-20)
(7.0492 -0.136653 -6.20502e-20)
(7.55001 -0.135303 0)
(8.04497 -0.128643 -6.11163e-20)
(8.50995 -0.114499 0)
(8.92129 -0.096121 0)
(9.26319 -0.0826515 -5.98184e-20)
(9.5421 -0.0677807 0)
(9.70767 -0.0148181 -5.83703e-20)
(9.64573 0.0641416 0)
(9.3699 0.155774 0)
(8.83151 0.2085 -5.46486e-20)
(8.2409 0.227592 0)
(7.4569 0.272712 -5.15507e-20)
(6.62645 0.17226 0)
(5.95136 0.41037 0)
(3.68357 0.656983 0)
(1.26508 0.145198 4.70535e-20)
(0.320103 -0.0997573 0)
(-0.239491 -0.00776233 -4.79214e-20)
(-0.622587 0.0741308 0)
(-0.901898 0.0883376 0)
(-1.13869 0.0372995 0)
(-1.25144 -0.00041513 0)
(-1.22076 -0.0269546 0)
(-1.07047 -0.0528666 0)
(-0.809537 -0.0601535 0)
(-0.540039 -0.0493832 7.96685e-20)
(-0.25653 -0.0385542 0)
(-0.101167 -0.0302905 0)
(-0.0645546 0.481521 1.44149e-19)
(-0.248278 0.507904 -1.43076e-19)
(-0.397635 0.429247 0)
(-0.4285 0.213145 9.40236e-20)
(-0.358865 -0.0796694 0)
(-0.290205 -0.318854 4.62525e-20)
(-0.168905 -0.485978 -9.18643e-20)
(-0.0346082 -0.571327 -9.11332e-20)
(0.110693 -0.593211 0)
(0.259278 -0.573404 -8.95889e-20)
(0.403958 -0.530657 -4.43759e-20)
(0.538021 -0.47771 0)
(0.658023 -0.421568 0)
(0.763377 -0.365449 0)
(0.854706 -0.310907 0)
(0.933266 -0.259222 -4.25624e-20)
(0.999324 -0.210572 0)
(1.05595 -0.164285 8.3741e-20)
(1.10294 -0.118644 0)
(1.14338 -0.0734625 0)
(1.17808 -0.0235226 -8.15757e-20)
(1.21124 0.0280902 0)
(1.23713 0.091846 8.0119e-20)
(1.25637 0.155796 -3.96805e-20)
(1.27933 0.223918 3.93204e-20)
(1.27035 0.318684 -3.89665e-20)
(1.30279 0.331238 -3.86278e-20)
(1.3057 0.332921 0)
(1.21974 0.370964 0)
(0.965403 0.261828 3.76221e-20)
(0.701039 0.0196363 -3.72851e-20)
(0.570002 -0.173057 0)
(0.545207 -0.262038 0)
(0.583264 -0.267259 3.62828e-20)
(0.680866 -0.292186 0)
(0.825251 -0.394849 0)
(0.978604 -0.503019 -3.52401e-20)
(1.13327 -0.548207 0)
(1.23835 -0.494351 3.46036e-20)
(1.25455 -0.341949 -6.86106e-20)
(1.2453 -0.164183 0)
(1.25357 -0.0333953 0)
(1.26316 0.0305 -1.33646e-19)
(1.28912 0.0415895 -1.32476e-19)
(1.35931 0.0174894 -1.31318e-19)
(1.4713 -0.0318225 6.50813e-20)
(1.60325 -0.0922966 -6.44738e-20)
(1.73656 -0.141733 -1.91696e-19)
(1.85902 -0.162373 1.26653e-19)
(1.96615 -0.145645 6.27246e-20)
(2.04494 -0.0916952 0)
(2.08331 -0.00518831 -6.15844e-20)
(2.07637 0.10401 6.1062e-20)
(2.01986 0.217037 0)
(1.90382 0.316155 0)
(1.72875 0.388868 0)
(1.5064 0.407397 -5.87708e-20)
(1.27927 0.310991 0)
(1.06452 0.0600483 1.15561e-19)
(0.658766 0.0930434 0)
(0.0661898 0.478438 1.14033e-19)
(-0.636244 0.874165 0)
(-1.27083 1.12894 -1.12206e-19)
(-1.79045 1.18471 0)
(-2.34647 1.07504 1.10428e-19)
(-2.79782 0.904577 -5.50454e-20)
(-3.1426 0.837376 0)
(-3.54145 0.7381 -1.08547e-19)
(-3.91338 0.681805 -5.38758e-20)
(-4.28351 0.666032 -5.3623e-20)
(-4.64728 0.637689 0)
(-5.00387 0.611862 -5.33745e-20)
(-5.34405 0.583095 -5.28406e-20)
(-5.6654 0.553909 0)
(-5.97036 0.522514 5.2231e-20)
(-6.24992 0.480841 -1.04061e-19)
(-6.49592 0.429196 0)
(-6.70465 0.370065 -5.10575e-20)
(-6.87334 0.303933 0)
(-6.99686 0.229852 1.50409e-19)
(-7.07069 0.148191 0)
(-7.09458 0.0625396 -1.46664e-19)
(-7.0709 -0.0230167 -4.81025e-20)
(-7.00237 -0.10613 4.75518e-20)
(-6.88708 -0.185107 9.3465e-20)
(-6.72872 -0.257851 -9.17731e-20)
(-6.53106 -0.322936 0)
(-6.29795 -0.380471 0)
(-6.03254 -0.431463 0)
(-5.73848 -0.477238 2.54637e-19)
(-5.41921 -0.519627 8.32547e-20)
(-5.07581 -0.562013 -8.17289e-20)
(-4.70597 -0.610192 0)
(-4.30322 -0.672623 -7.90028e-20)
(-3.85383 -0.761199 7.76806e-20)
(-3.33324 -0.891544 7.65766e-20)
(-2.70509 -1.07898 0)
(-1.93124 -1.32541 0)
(-1.00755 -1.59207 0)
(-0.0140835 -1.76797 7.53024e-20)
(0.878182 -1.68584 0)
(1.47833 -1.23644 -1.54919e-19)
(1.64962 -0.50013 -2.31883e-19)
(1.39066 0.328373 1.52779e-19)
(0.75932 0.88216 0)
(-0.0258192 0.913778 7.22983e-20)
(-3.4137 2.32406 0)
(-7.20794 3.80715 1.35419e-19)
(-9.75974 3.45527 -7.04432e-20)
(-11.1506 2.07761 -7.15859e-20)
(-11.2352 1.40993 0)
(-12.031 0.923472 -2.13801e-19)
(-12.0331 0.486474 1.44645e-19)
(-12.4126 0.308771 7.20283e-20)
(-12.4078 0.0804075 0)
(-12.4803 -0.0300447 7.1547e-20)
(-12.3947 -0.15605 2.12634e-19)
(-12.2375 -0.247651 0)
(-12.011 -0.331858 1.36714e-19)
(-11.6957 -0.407442 1.3345e-19)
(-11.3376 -0.469634 1.29871e-19)
(-10.909 -0.526572 0)
(-10.4506 -0.571007 0)
(-9.95134 -0.609517 0)
(-9.43425 -0.640202 -5.72948e-20)
(-8.89353 -0.669342 -5.52426e-20)
(-8.32466 -0.703263 0)
(-7.70923 -0.750873 -1.03531e-19)
(-7.02555 -0.818845 -9.98959e-20)
(-6.25377 -0.90577 0)
(-5.38061 -1.00098 -9.15989e-20)
(-4.40837 -1.08347 -1.76394e-19)
(-3.36126 -1.12913 8.38919e-20)
(-2.27993 -1.12379 8.14474e-20)
(-1.20662 -1.06669 0)
(-0.183106 -0.964123 0)
(0.750909 -0.831073 0)
(1.56792 -0.693812 7.23605e-20)
(2.26178 -0.5792 -7.16481e-20)
(2.85116 -0.501882 -1.41042e-19)
(3.36993 -0.460319 6.95097e-20)
(3.85065 -0.441492 -6.89057e-20)
(4.3121 -0.429434 -6.78703e-20)
(4.75715 -0.41427 0)
(5.18126 -0.395803 0)
(5.5825 -0.380066 6.58468e-20)
(5.96772 -0.373496 0)
(6.35157 -0.379062 0)
(6.75004 -0.394991 -1.27665e-19)
(7.1752 -0.415638 0)
(7.63183 -0.433862 -6.26632e-20)
(8.11589 -0.44219 6.19603e-20)
(8.61127 -0.434885 0)
(9.09183 -0.409038 -6.12167e-20)
(9.53717 -0.365047 0)
(9.9371 -0.307789 0)
(10.2654 -0.245901 5.97531e-20)
(10.4433 -0.177902 -1.1854e-19)
(10.4911 -0.0740395 5.83294e-20)
(10.4678 0.0625611 0)
(10.4134 0.213795 0)
(10.2757 0.344875 -5.4885e-20)
(10.0084 0.428454 0)
(9.67647 0.541276 -5.18205e-20)
(9.02506 0.569539 0)
(8.51924 0.739665 0)
(7.54128 1.19492 0)
(5.93687 1.3637 -4.68133e-20)
(4.49681 1.09433 0)
(2.65997 0.504816 4.77916e-20)
(0.772557 0.0789337 0)
(0.0586373 -0.0149 0)
(-0.109729 -0.0356004 -9.2609e-20)
(-0.214731 -0.0442148 9.05464e-20)
(-0.197811 -0.0983338 0)
(-0.110214 -0.181027 0)
(0.060252 -0.215492 0)
(0.230889 -0.197775 -2.39003e-19)
(0.463243 -0.154008 0)
(0.567692 -0.104405 1.48975e-19)
(-0.00615832 0.749646 1.22651e-22)
(-0.0852576 0.779367 1.90994e-19)
(-0.167271 0.618663 0)
(-0.123356 0.273852 -1.88315e-19)
(-0.0426182 -0.143806 0)
(0.0498056 -0.494568 0)
(0.150387 -0.718945 -1.08704e-22)
(0.256707 -0.818648 9.10492e-20)
(0.364121 -0.829421 9.03795e-20)
(0.468105 -0.787913 8.95089e-20)
(0.565498 -0.71927 0)
(0.654143 -0.638998 0)
(0.733035 -0.555948 -8.74164e-20)
(0.80167 -0.475229 -1.73393e-19)
(0.860073 -0.399539 1.7196e-19)
(0.909017 -0.330251 0)
(0.949677 -0.267751 1.69088e-19)
(0.983796 -0.212078 -8.37481e-20)
(1.01396 -0.161983 0)
(1.04306 -0.116262 1.64758e-19)
(1.07306 -0.0730971 8.15957e-20)
(1.10783 -0.0324716 -1.61847e-19)
(1.15218 0.010675 -8.01431e-20)
(1.20339 0.0566246 0)
(1.26937 0.104447 1.57427e-19)
(1.33201 0.161382 1.55958e-19)
(1.40466 0.196633 0)
(1.44368 0.214844 1.53083e-19)
(1.43623 0.233995 0)
(1.43726 0.27697 1.50245e-19)
(1.42264 0.32723 7.44485e-20)
(1.27141 0.223807 0)
(1.09695 -0.048056 0)
(0.998973 -0.242634 0)
(0.979861 -0.369815 0)
(1.04436 -0.541723 0)
(1.07203 -0.594649 0)
(1.01365 -0.452408 1.39639e-19)
(0.914609 -0.255201 -2.07727e-19)
(0.838749 -0.13399 0)
(0.846057 -0.122039 0)
(0.931954 -0.175993 0)
(1.06483 -0.242569 1.43317e-23)
(1.22009 -0.290037 1.32479e-19)
(1.37845 -0.307616 2.62583e-19)
(1.52324 -0.299169 -2.60237e-19)
(1.6518 -0.279583 -1.28982e-19)
(1.78477 -0.265547 1.27742e-19)
(1.93585 -0.247645 1.1419e-22)
(2.08476 -0.193661 1.25566e-19)
(2.18949 -0.0801611 0)
(2.21961 0.086669 1.23344e-19)
(2.15669 0.286536 1.37827e-22)
(2.00397 0.50075 0)
(1.78657 0.685547 0)
(1.51517 0.793542 -1.18593e-19)
(1.18419 0.799176 0)
(0.811229 0.633625 0)
(0.152095 0.619292 1.15601e-19)
(-0.653977 0.992939 2.29464e-19)
(-1.34943 1.39956 -1.1373e-19)
(-1.98542 1.69298 0)
(-2.39943 1.77545 1.11918e-19)
(-2.62106 1.65829 0)
(-2.86205 1.51093 1.11167e-19)
(-3.13377 1.40668 1.09598e-19)
(-3.44071 1.32078 -2.18867e-19)
(-3.79074 1.21523 -1.09302e-19)
(-4.1569 1.15994 0)
(-4.53141 1.12545 2.1562e-19)
(-4.89885 1.07313 0)
(-5.26052 1.01778 3.19987e-19)
(-5.60241 0.96128 2.12576e-19)
(-5.92532 0.903549 2.11469e-19)
(-6.22789 0.837806 -2.10259e-19)
(-6.49984 0.758331 3.12886e-19)
(-6.73657 0.666865 0)
(-6.93614 0.566231 0)
(-7.09198 0.455591 -2.03764e-19)
(-7.19792 0.333679 -3.01914e-19)
(-7.25284 0.204247 0)
(-7.25708 0.0721078 9.78387e-20)
(-7.21022 -0.060785 0)
(-7.11283 -0.192046 -2.8526e-19)
(-6.96874 -0.317037 5.57389e-22)
(-6.78279 -0.43156 -4.58578e-22)
(-6.55999 -0.533819 1.80168e-19)
(-6.30534 -0.623311 0)
(-6.02415 -0.700258 -1.73228e-19)
(-5.72162 -0.766381 1.46633e-22)
(-5.40226 -0.825552 0)
(-5.06945 -0.883744 0)
(-4.72525 -0.949618 0)
(-4.36919 -1.03613 1.57816e-19)
(-3.9958 -1.16206 0)
(-3.59109 -1.35169 0)
(-3.12936 -1.62823 0)
(-2.58014 -1.99125 0)
(-1.94381 -2.3688 0)
(-1.30431 -2.5695 1.50891e-19)
(-0.812153 -2.32561 0)
(-0.569515 -1.50509 1.55118e-19)
(-0.607515 -0.305578 1.55533e-19)
(-1.01925 0.993299 -1.52724e-19)
(-2.02419 2.2933 0)
(-4.24099 3.78866 -1.41551e-19)
(-7.48972 5.31991 0)
(-9.53904 5.56884 -1.34666e-19)
(-9.81708 4.14218 1.35526e-19)
(-9.87126 2.77296 4.24709e-19)
(-10.0374 2.0146 0)
(-10.4217 1.29859 4.35255e-19)
(-10.561 0.810588 1.48363e-19)
(-10.8673 0.485994 0)
(-10.9061 0.17359 2.92276e-19)
(-10.9783 -0.0235782 2.89736e-19)
(-10.8848 -0.230322 -4.28048e-19)
(-10.7459 -0.381995 0)
(-10.512 -0.528226 -1.36918e-19)
(-10.21 -0.650533 -1.33637e-19)
(-9.8485 -0.756386 -3.91057e-19)
(-9.42986 -0.84726 0)
(-8.98026 -0.917936 0)
(-8.504 -0.976309 0)
(-8.02355 -1.02086 -1.15036e-19)
(-7.53917 -1.06262 0)
(-7.04785 -1.1126 0)
(-6.529 -1.188 1.03602e-19)
(-5.95547 -1.30351 9.99444e-20)
(-5.29936 -1.46087 0)
(-4.53551 -1.64305 0)
(-3.65248 -1.81198 1.76346e-19)
(-2.66973 -1.92012 0)
(-1.62828 -1.93954 -1.6193e-19)
(-0.568963 -1.8643 -1.57474e-19)
(0.470372 -1.70108 0)
(1.44322 -1.47742 0)
(2.30657 -1.23795 1.45675e-19)
(3.04188 -1.02858 -6.62235e-22)
(3.66411 -0.878222 -5.71054e-22)
(4.21062 -0.790048 0)
(4.7211 -0.744697 2.75179e-19)
(5.21869 -0.714005 0)
(5.70412 -0.67845 0)
(6.16483 -0.636233 0)
(6.5907 -0.59869 -1.31359e-19)
(6.98401 -0.579061 0)
(7.35937 -0.584005 2.57974e-19)
(7.73741 -0.611055 1.27488e-19)
(8.13704 -0.650279 0)
(8.57043 -0.688086 1.25012e-19)
(9.03907 -0.709403 0)
(9.53108 -0.701193 0)
(10.0224 -0.660769 3.66871e-19)
(10.4915 -0.593258 -2.43375e-19)
(10.9266 -0.494756 0)
(11.3097 -0.341607 -2.40225e-19)
(11.5515 -0.14441 1.18411e-19)
(11.5463 0.0481738 0)
(11.2871 0.204529 0)
(10.8899 0.336618 0)
(10.5057 0.477152 3.29072e-19)
(10.1058 0.592815 0)
(9.75962 0.754091 1.03189e-19)
(9.29153 0.909721 0)
(8.77477 1.09068 0)
(8.38674 1.55574 0)
(7.85139 1.96022 0)
(7.14851 1.8774 0)
(6.08285 1.44742 0)
(4.7921 1.02939 1.90142e-19)
(3.74263 0.667989 0)
(2.72816 0.313352 9.23642e-20)
(1.85516 0.0444107 -2.71156e-19)
(1.51475 -0.121006 0)
(1.37502 -0.213929 0)
(1.25941 -0.23714 1.64818e-19)
(1.17451 -0.230972 1.59195e-19)
(1.18508 -0.209562 -1.53802e-19)
(1.15258 -0.163875 -1.48896e-19)
(0.0442387 0.728873 -2.88987e-19)
(0.0484747 0.842761 -2.86863e-19)
(0.00887282 0.73232 -1.89949e-19)
(0.0978957 0.318248 -9.44165e-20)
(0.234666 -0.223347 0)
(0.364621 -0.647466 1.85489e-19)
(0.470302 -0.885353 -9.20661e-20)
(0.557144 -0.972315 0)
(0.633568 -0.964797 -9.02834e-20)
(0.703633 -0.907143 0)
(0.767717 -0.824948 1.7789e-19)
(0.825246 -0.731419 0)
(0.875694 -0.633556 8.73674e-20)
(0.918184 -0.536022 1.73312e-19)
(0.951868 -0.442468 -1.71894e-19)
(0.976149 -0.355656 0)
(0.991667 -0.27752 -1.69057e-19)
(0.99971 -0.208921 0)
(1.00238 -0.15027 0)
(1.00213 -0.100272 -1.6477e-19)
(1.00319 -0.0593451 0)
(1.00763 -0.0243785 -1.27999e-22)
(1.02084 0.00498185 0)
(1.04258 0.0298154 0)
(1.08037 0.054317 6.14263e-23)
(1.12654 0.0730862 -1.56068e-19)
(1.19111 0.0977486 -1.5463e-19)
(1.26734 0.135897 -1.5316e-19)
(1.32939 0.175629 0)
(1.38991 0.238547 -3.00525e-19)
(1.42937 0.310493 0)
(1.40869 0.303812 -1.47385e-19)
(1.34313 0.200347 0)
(1.23246 0.00944073 0)
(1.15479 -0.294352 1.43431e-19)
(1.11248 -0.556426 0)
(1.01379 -0.544904 -1.4082e-19)
(0.898111 -0.348466 -6.99953e-23)
(0.838376 -0.219031 2.76919e-19)
(0.862857 -0.232396 -2.74461e-19)
(0.961803 -0.321841 0)
(1.09939 -0.411622 0)
(1.2391 -0.46333 -1.3356e-19)
(1.35792 -0.469381 0)
(1.44591 -0.434066 -1.31231e-19)
(1.52975 -0.400887 1.30066e-19)
(1.67726 -0.443831 1.28884e-19)
(1.90837 -0.542041 0)
(2.16785 -0.589359 -1.26528e-19)
(2.37722 -0.504755 -1.2541e-19)
(2.4781 -0.288752 2.49344e-19)
(2.45746 0.026652 -1.23248e-19)
(2.32687 0.372457 -1.22066e-19)
(2.0786 0.699855 0)
(1.72645 1.00762 0)
(1.28956 1.24983 1.18553e-19)
(0.792384 1.34177 0)
(0.198095 1.3064 0)
(-0.641446 1.50237 -2.30873e-19)
(-1.36565 1.818 -2.28895e-19)
(-1.84334 2.02143 0)
(-2.23187 2.13581 0)
(-2.49028 2.09429 0)
(-2.67753 1.95799 0)
(-2.91494 1.87258 -2.21324e-19)
(-3.19719 1.83086 2.20941e-19)
(-3.52453 1.76791 2.18698e-19)
(-3.89068 1.68429 4.36138e-19)
(-4.26974 1.63105 0)
(-4.64309 1.58092 1.11332e-21)
(-5.01209 1.51833 0)
(-5.37354 1.4445 -2.13437e-19)
(-5.71841 1.36104 1.23572e-21)
(-6.05018 1.2794 -2.11307e-19)
(-6.35891 1.18254 2.10106e-19)
(-6.63554 1.05965 1.36693e-21)
(-6.88 0.921953 0)
(-7.08467 0.770455 2.06979e-19)
(-7.23953 0.599642 2.0367e-19)
(-7.34213 0.414635 4.04368e-19)
(-7.39185 0.224104 0)
(-7.3866 0.0319113 -1.97639e-19)
(-7.32626 -0.158697 0)
(-7.21355 -0.342007 3.81562e-19)
(-7.05295 -0.51218 -1.86995e-19)
(-6.8491 -0.665747 1.83566e-19)
(-6.60735 -0.801044 -1.80081e-19)
(-6.33407 -0.917131 -3.5394e-19)
(-6.03608 -1.01388 1.73142e-19)
(-5.71993 -1.09306 -1.69775e-19)
(-5.39181 -1.15876 0)