/*--------------------------------*- C++ -*----------------------------------*\
  =========                 |
  \\      /  F ield         | OpenFOAM: The Open Source CFD Toolbox
   \\    /   O peration     | Website:  https://openfoam.org
    \\  /    A nd           | Version:  6
     \\/     M anipulation  |
\*---------------------------------------------------------------------------*/
FoamFile
{
    version     2.0;
    format      ascii;
    class       volScalarField;
    location    "0.2";
    object      k;
}
// * * * * * * * * * * * * * * * * * * * * * * * * * * * * * * * * * * * * * //

dimensions      [0 2 -2 0 0 0 0];

internalField   nonuniform List<scalar> 
12225
(
4.31552e-05
0.000189464
0.000645179
0.000969489
0.000991599
0.000807099
0.000396801
0.00021798
0.000181787
0.00019635
0.00027266
0.000330476
0.000348335
0.000348317
0.000330699
0.000254575
0.000166003
8.88395e-05
2.07858e-05
3.32117e-05
9.98508e-05
0.000177302
0.000189079
0.000173891
0.000114312
7.47949e-05
6.24997e-05
6.19297e-05
6.82177e-05
9.47075e-05
0.000133414
0.000162086
0.00017422
0.000174595
0.000171073
0.000153779
2.00924e-05
1.5031e-05
1.69539e-05
2.28525e-05
2.45211e-05
2.38876e-05
2.12768e-05
1.99676e-05
1.98624e-05
2.04613e-05
2.2644e-05
2.72018e-05
3.34307e-05
3.74533e-05
4.00993e-05
4.50096e-05
4.92799e-05
5.09477e-05
2.00196e-05
1.98873e-05
1.98133e-05
1.98708e-05
2.00944e-05
2.01251e-05
1.99168e-05
1.91507e-05
1.86553e-05
1.8401e-05
1.79757e-05
1.69769e-05
1.46999e-05
1.38586e-05
1.39625e-05
1.44559e-05
1.58312e-05
1.75971e-05
2.29055e-05
2.18995e-05
2.13712e-05
2.1624e-05
2.4144e-05
2.77458e-05
2.78452e-05
2.66948e-05
2.43491e-05
2.32241e-05
2.27828e-05
2.27155e-05
2.27543e-05
2.29237e-05
2.32875e-05
2.40219e-05
2.65714e-05
2.75099e-05
2.49847e-05
2.15781e-05
2.15487e-05
2.1591e-05
2.20287e-05
2.25485e-05
2.27752e-05
2.29491e-05
2.37799e-05
2.56918e-05
2.96707e-05
3.29531e-05
3.48939e-05
3.67733e-05
4.05886e-05
4.82083e-05
5.59541e-05
6.26967e-05
3.49165e-05
2.44668e-05
2.20592e-05
2.18203e-05
2.10672e-05
2.08161e-05
2.08113e-05
2.09552e-05
2.17313e-05
2.46634e-05
2.72123e-05
2.73622e-05
2.74748e-05
2.76627e-05
2.80511e-05
2.92491e-05
3.18217e-05
3.47975e-05
2.2413e-05
2.24577e-05
2.38647e-05
2.38384e-05
2.16124e-05
2.07582e-05
2.05965e-05
2.06009e-05
2.07279e-05
2.12088e-05
2.27261e-05
2.61929e-05
2.91343e-05
3.11077e-05
3.21781e-05
3.262e-05
3.27193e-05
3.26993e-05
2.27403e-05
2.15069e-05
2.07594e-05
2.07074e-05
2.08123e-05
2.13633e-05
2.18884e-05
2.21646e-05
2.22821e-05
2.23676e-05
2.25261e-05
2.28752e-05
2.38215e-05
2.64611e-05
2.88163e-05
3.01288e-05
3.05872e-05
3.07184e-05
2.5104e-05
2.34464e-05
2.2393e-05
2.27839e-05
2.29824e-05
2.27764e-05
2.22723e-05
2.21171e-05
2.21285e-05
2.22772e-05
2.27817e-05
2.33353e-05
2.36617e-05
2.37365e-05
2.37357e-05
2.36528e-05
2.3441e-05
2.3369e-05
2.00337e-05
2.01902e-05
2.12189e-05
2.318e-05
2.37956e-05
2.37489e-05
2.28451e-05
2.1617e-05
2.12675e-05
2.13139e-05
2.1985e-05
2.58159e-05
3.40819e-05
3.69815e-05
3.67065e-05
3.36524e-05
2.90846e-05
2.62592e-05
2.03088e-05
2.07274e-05
2.11471e-05
2.22809e-05
2.51871e-05
2.67868e-05
2.69406e-05
2.63467e-05
2.50702e-05
2.47276e-05
2.48731e-05
2.62152e-05
3.24676e-05
4.06557e-05
4.40182e-05
4.41463e-05
4.24685e-05
3.57276e-05
2.14029e-05
2.36888e-05
2.34898e-05
2.19507e-05
2.19096e-05
2.29408e-05
2.67085e-05
3.14625e-05
3.68012e-05
4.35924e-05
5.0156e-05
5.95278e-05
8.38187e-05
0.000110974
0.000123787
0.0001249
0.000116545
8.41823e-05
2.08481e-05
2.1156e-05
2.07294e-05
2.08192e-05
2.21019e-05
2.35515e-05
2.44761e-05
2.63878e-05
3.17614e-05
5.29691e-05
0.000142637
0.000237889
0.000273737
0.000270839
0.000218026
0.000131212
8.18493e-05
5.48496e-05
2.57985e-05
2.4145e-05
2.25485e-05
2.19665e-05
2.19457e-05
2.20427e-05
2.23222e-05
2.25861e-05
2.31167e-05
2.44561e-05
2.90721e-05
4.63496e-05
8.38591e-05
0.000105349
0.000109171
0.000106507
9.45194e-05
7.4418e-05
2.84038e-05
2.57891e-05
2.31276e-05
2.22999e-05
2.28388e-05
2.42875e-05
2.49632e-05
2.50623e-05
2.46611e-05
2.42692e-05
2.43748e-05
2.5216e-05
2.75333e-05
2.97793e-05
3.10207e-05
3.14669e-05
3.14077e-05
3.09705e-05
2.31419e-05
2.35045e-05
2.20766e-05
2.20102e-05
2.33672e-05
2.70677e-05
2.99826e-05
3.05702e-05
3.02551e-05
2.81048e-05
2.48031e-05
2.30942e-05
2.24163e-05
2.2265e-05
2.2258e-05
2.23323e-05
2.2813e-05
2.50578e-05
2.00555e-05
2.06925e-05
2.31587e-05
2.6353e-05
3.07216e-05
3.35324e-05
3.34132e-05
3.00656e-05
2.44178e-05
2.19086e-05
2.14104e-05
2.17437e-05
2.2801e-05
2.28474e-05
2.22444e-05
2.18749e-05
2.18644e-05
2.20695e-05
2.04267e-05
2.37505e-05
2.4034e-05
2.3196e-05
2.2991e-05
2.31999e-05
2.48181e-05
2.63122e-05
2.62128e-05
2.44971e-05
2.27862e-05
2.2208e-05
2.19395e-05
2.15947e-05
2.1304e-05
2.12013e-05
2.12011e-05
2.13243e-05
2.01932e-05
2.0601e-05
2.06674e-05
2.06324e-05
2.06316e-05
2.07548e-05
2.11569e-05
2.14487e-05
2.15182e-05
2.1521e-05
2.15833e-05
2.18667e-05
2.21053e-05
2.21637e-05
2.20703e-05
2.18619e-05
2.18241e-05
2.18668e-05
2.09939e-05
2.12564e-05
2.08271e-05
2.05874e-05
2.06096e-05
2.09718e-05
2.16139e-05
2.18565e-05
2.18928e-05
2.18886e-05
2.18965e-05
2.19762e-05
2.23519e-05
2.28041e-05
2.29578e-05
2.29473e-05
2.27512e-05
2.2543e-05
2.16409e-05
2.3768e-05
2.31317e-05
2.24199e-05
2.2328e-05
2.28777e-05
2.37669e-05
2.36642e-05
2.36012e-05
2.36989e-05
2.43865e-05
2.74764e-05
3.41888e-05
3.91696e-05
4.13925e-05
4.15091e-05
3.97507e-05
3.39714e-05
2.01835e-05
2.51628e-05
3.28337e-05
3.25575e-05
2.88472e-05
2.53027e-05
2.44506e-05
2.42217e-05
2.49718e-05
2.72425e-05
2.85399e-05
2.90433e-05
2.91131e-05
2.89699e-05
2.88784e-05
2.89358e-05
2.9451e-05
3.22014e-05
2.15372e-05
2.6856e-05
2.68404e-05
2.38512e-05
2.30137e-05
2.26733e-05
2.13187e-05
2.06565e-05
2.05734e-05
2.0704e-05
2.14108e-05
2.43994e-05
2.88084e-05
3.08743e-05
3.10886e-05
3.03357e-05
2.84636e-05
2.75502e-05
2.05772e-05
2.21439e-05
2.19102e-05
2.20895e-05
2.31264e-05
2.52613e-05
2.49369e-05
2.26469e-05
2.16689e-05
2.17281e-05
2.30306e-05
2.52606e-05
2.59728e-05
2.59552e-05
2.54306e-05
2.43949e-05
2.38345e-05
2.36708e-05
2.05044e-05
2.14002e-05
2.14385e-05
2.14233e-05
2.16727e-05
2.28761e-05
2.36327e-05
2.35467e-05
2.32696e-05
2.35273e-05
2.56787e-05
2.97799e-05
3.11609e-05
3.11532e-05
3.02017e-05
2.71017e-05
2.489e-05
2.38832e-05
2.00103e-05
2.00089e-05
2.0006e-05
1.99716e-05
1.98538e-05
1.95967e-05
1.93104e-05
1.91344e-05
1.93409e-05
2.01594e-05
2.05957e-05
2.06767e-05
2.06508e-05
2.05055e-05
2.00243e-05
1.94819e-05
1.93297e-05
1.94293e-05
2.0001e-05
1.86738e-05
1.84412e-05
1.747e-05
1.65371e-05
1.60438e-05
1.58157e-05
1.57565e-05
1.58222e-05
1.63315e-05
1.71206e-05
1.75396e-05
1.76746e-05
1.76727e-05
1.75242e-05
1.68419e-05
1.60473e-05
1.54735e-05
2.00042e-05
2.01121e-05
2.06119e-05
2.23725e-05
2.72051e-05
2.9757e-05
2.99846e-05
2.93196e-05
2.66646e-05
2.44637e-05
2.32524e-05
2.25723e-05
2.2254e-05
2.20597e-05
2.17692e-05
2.1427e-05
2.10639e-05
2.07185e-05
2.04306e-05
2.1775e-05
2.89369e-05
5.08743e-05
7.18936e-05
8.04241e-05
8.08398e-05
7.53482e-05
5.74434e-05
4.41235e-05
3.6161e-05
3.11073e-05
2.76175e-05
2.49722e-05
2.28151e-05
2.10569e-05
1.97254e-05
1.89107e-05
0.00114197
0.00273657
0.00576635
0.0056994
0.00737409
0.021856
0.0255713
0.0237573
0.0236458
0.0244155
0.025779
0.0267122
0.0272202
0.0275944
0.0277377
0.0277789
0.0276415
0.0272358
0.0269544
0.0267246
0.0265192
0.0263212
0.0262584
0.0263217
0.0266076
0.0271439
0.0276106
0.027988
0.0282434
0.0283592
0.0283849
0.0283829
0.0284482
0.0286749
0.0290551
0.0296474
0.0303506
0.0309681
0.0313759
0.0316333
0.0318841
0.0321224
0.0322675
0.0324475
0.0330762
0.0364795
0.0425471
0.0494858
0.0683334
0.122732
0.142794
0.157499
0.174254
0.295943
0.2743
0.0970235
0.0645383
0.0591003
0.0581187
0.0576566
0.0573167
0.0568504
0.0553234
0.0531414
0.0499405
0.0458474
0.0418351
0.0373043
0.0331659
0.0302028
0.0271972
0.0257371
0.0247984
0.0245344
0.0244534
0.0244136
0.0244275
0.0245216
0.0246482
0.0248446
0.0250898
0.0253903
0.0257127
0.0261382
0.0266232
0.0271595
0.0277981
0.0285277
0.0293742
0.0303394
0.0314702
0.0327193
0.0341644
0.0357796
0.0376726
0.03987
0.0427984
0.047422
0.0570782
0.0752763
0.0954432
0.112677
0.123586
0.128174
0.128935
0.127968
0.126279
0.126045
0.126333
0.126604
0.125991
0.122722
0.119687
0.118976
0.118184
0.116797
0.116657
0.117558
0.119135
0.122395
0.126295
0.157784
0.329744
0.431603
0.434532
0.426264
0.412451
0.386306
0.343326
0.289393
0.242636
0.219151
0.211589
0.189573
0.131864
0.0728288
0.0397813
0.0304314
0.0283054
0.0278865
0.0275041
0.02673
0.0252674
0.0235149
0.0214233
0.019309
0.0175619
0.0163398
0.0156496
0.0154199
0.0158859
0.0161553
0.0164573
0.016775
0.0170168
0.0171909
0.0172766
0.0172984
0.0172347
0.0171663
0.0171243
0.0172475
0.0175415
0.0181082
0.0190949
0.0205395
0.0222185
0.0239351
0.026578
0.0320211
0.0462749
0.0878844
0.122903
0.132872
0.130302
0.124576
0.12815
0.163994
0.226426
0.23197
0.00414876
0.00635447
0.0156303
0.0204062
0.0198522
0.0203272
0.0174612
0.0162702
0.0170025
0.0190857
0.0204599
0.0214097
0.0225082
0.023684
0.024871
0.0258107
0.0264413
0.0267417
0.0267719
0.0266547
0.0263545
0.0259144
0.0255162
0.0253665
0.0255693
0.0264982
0.0273986
0.0279425
0.0281474
0.0281402
0.027898
0.0268426
0.0255038
0.0250446
0.0252079
0.026332
0.0275075
0.0278479
0.0278601
0.02787
0.0281061
0.029315
0.0313472
0.0322552
0.0327927
0.0343526
0.0368935
0.0386285
0.0436098
0.0528813
0.0689714
0.175081
0.251363
0.219749
0.110593
0.0622112
0.0498251
0.0450725
0.0412825
0.0376581
0.0342
0.0315292
0.0286932
0.0260428
0.0235297
0.0213686
0.0199829
0.0181734
0.0172912
0.0166697
0.0162533
0.0160844
0.01603
0.0160692
0.0161919
0.0162315
0.0162574
0.016261
0.016245
0.0162035
0.0161655
0.0161006
0.016024
0.0159478
0.015874
0.0157862
0.0157216
0.01565
0.0155754
0.0154858
0.0154392
0.0154148
0.0154637
0.0156032
0.0158854
0.0162685
0.0167322
0.0173063
0.0182237
0.0198635
0.0228097
0.027279
0.0324691
0.0366823
0.0392616
0.0407485
0.0420568
0.0430789
0.0437994
0.0444162
0.0445984
0.0445596
0.044733
0.0459648
0.0488989
0.0525136
0.0570497
0.0595622
0.0605233
0.0631305
0.0704649
0.0891161
0.173874
0.243498
0.234984
0.227107
0.228754
0.220339
0.198608
0.198953
0.217359
0.251778
0.261216
0.207843
0.113595
0.0502338
0.0284675
0.0221806
0.0199855
0.0187315
0.0177832
0.0170719
0.0165048
0.0162502
0.0161831
0.0165733
0.0172122
0.0183112
0.0195099
0.0209713
0.0226136
0.0243479
0.02608
0.0279533
0.029357
0.0300615
0.0303293
0.0298093
0.0283876
0.0262775
0.023472
0.0206248
0.0179042
0.0152662
0.0128636
0.0108543
0.00939079
0.00853043
0.00824915
0.00843908
0.0102623
0.0173873
0.0374221
0.0794014
0.104885
0.112512
0.114969
0.121955
0.14393
0.159054
0.00660177
0.0125586
0.0201884
0.0187455
0.0159575
0.0153256
0.0166848
0.0193373
0.0257196
0.0311121
0.0336713
0.0345305
0.0334658
0.0324736
0.031361
0.0299908
0.0288554
0.0279462
0.0273067
0.0269031
0.0267572
0.0267622
0.0269493
0.0276133
0.0285617
0.0297033
0.0308295
0.0317933
0.0323607
0.0324118
0.0320631
0.0302925
0.0260959
0.0224041
0.0204555
0.0203441
0.0215344
0.0233642
0.0242216
0.0246297
0.0253569
0.0275997
0.0295238
0.030353
0.0314808
0.0322519
0.0325434
0.033167
0.0359541
0.0559015
0.164581
0.20142
0.150466
0.0697418
0.0407032
0.0291414
0.0243043
0.0202482
0.0172566
0.0157433
0.014909
0.0145005
0.0143423
0.0143164
0.0141334
0.0137729
0.0135065
0.0133601
0.0133114
0.0133598
0.0136976
0.0145962
0.016071
0.01764
0.018454
0.01898
0.0192547
0.0193595
0.0193781
0.0192546
0.0190039
0.0187987
0.018462
0.0180813
0.0177314
0.0172755
0.0168466
0.0164155
0.016056
0.0156623
0.0153322
0.0150318
0.0147644
0.0145377
0.0143306
0.0142203
0.0142512
0.0143865
0.0145848
0.0148214
0.0152017
0.0159788
0.0171662
0.0181611
0.0187957
0.0193929
0.0203335
0.0224897
0.0248122
0.026451
0.0278318
0.0296834
0.0337801
0.0407162
0.0485569
0.0558244
0.0623515
0.0659254
0.0657756
0.0628915
0.0627695
0.0654479
0.084214
0.102879
0.122467
0.17787
0.207347
0.210202
0.201489
0.198431
0.20043
0.192905
0.155015
0.0913791
0.0392071
0.02175
0.0168284
0.0150812
0.0142968
0.0137148
0.013403
0.013273
0.0132557
0.013579
0.0141539
0.0150921
0.0164595
0.0184653
0.0217756
0.0278705
0.0370761
0.0449441
0.0505826
0.0537442
0.0556699
0.0569466
0.0578168
0.0583851
0.0587494
0.0588773
0.0583949
0.055277
0.0490174
0.0408968
0.0330619
0.025565
0.0186443
0.0128987
0.00892154
0.00684963
0.00628649
0.00657245
0.00860973
0.0148788
0.0344878
0.0658319
0.0780049
0.0795521
0.078162
0.0765846
0.00527921
0.00959309
0.0190148
0.0184197
0.0163442
0.0161204
0.0183938
0.0244708
0.0324036
0.0376962
0.0405498
0.0414222
0.0413506
0.0407794
0.0394856
0.0371473
0.0336745
0.0302491
0.0278886
0.0268763
0.0264974
0.0264896
0.0266636
0.0277518
0.0298007
0.0317725
0.0336589
0.035343
0.0365779
0.0374921
0.0382304
0.0388226
0.0391371
0.0391745
0.0385953
0.0370861
0.0365229
0.0364278
0.0362011
0.035069
0.034041
0.0344206
0.0381025
0.0409511
0.0400539
0.0360618
0.0352703
0.0374559
0.0592586
0.141053
0.169518
0.137867
0.0560135
0.0307902
0.0218052
0.0178427
0.0151404
0.0127675
0.0119967
0.0118157
0.0118918
0.0125396
0.0135581
0.0144916
0.0152388
0.0156254
0.0162634
0.0172486
0.0183811
0.0196992
0.0211174
0.0223862
0.0232113
0.023814
0.0243938
0.0246148
0.0246826
0.024671
0.0244384
0.024165
0.023932
0.0234501
0.0229753
0.0224812
0.021852
0.0212423
0.0205261
0.0197502
0.018975
0.0180971
0.0172302
0.0163589
0.0155176
0.0147598
0.0142046
0.0137287
0.0134004
0.013382
0.013696
0.0140571
0.0143109
0.014493
0.0145663
0.0144344
0.0141079
0.0139519
0.0140565
0.0150668
0.0189969
0.02255
0.0244571
0.0270377
0.0334748
0.0453711
0.0576168
0.0665878
0.0705494
0.0751572
0.0894605
0.0968599
0.095077
0.0830867
0.0827185
0.0871863
0.111139
0.184919
0.204366
0.185922
0.149927
0.124849
0.100739
0.0779024
0.0535957
0.0305826
0.0189507
0.0156876
0.0149077
0.0147198
0.0146257
0.0148645
0.0156308
0.0170905
0.0196942
0.0231764
0.0273755
0.0326704
0.0389885
0.0456118
0.0520221
0.0564936
0.0595177
0.0610561
0.0619372
0.0623537
0.0627754
0.0630689
0.0634507
0.0640472
0.0651878
0.0670372
0.0701755
0.0744853
0.0780388
0.0780457
0.0704332
0.0578354
0.0455566
0.033203
0.0216639
0.013021
0.0085643
0.00734766
0.00744544
0.00863838
0.0127616
0.0261826
0.0487082
0.0580303
0.0581697
0.0524973
0.00297042
0.00612861
0.0155696
0.0188774
0.018375
0.0181254
0.018711
0.0212139
0.0277097
0.0342916
0.0390678
0.0414731
0.0420619
0.0419295
0.0413178
0.0397568
0.0360591
0.0315198
0.0277954
0.0254721
0.0245486
0.0246052
0.025217
0.0267669
0.029363
0.0321539
0.0346901
0.0366824
0.0381059
0.0390477
0.0395355
0.0399294
0.040499
0.0412111
0.0416203
0.041529
0.0411375
0.0411061
0.0414667
0.0412786
0.0388208
0.0383539
0.0394989
0.0429443
0.0445311
0.0456633
0.0508188
0.0817397
0.132009
0.14578
0.130124
0.0559564
0.0287972
0.0206839
0.0176113
0.016073
0.0138924
0.0123802
0.012005
0.0119702
0.0122675
0.0131245
0.0144356
0.0158038
0.0169503
0.0177438
0.0187716
0.0206831
0.0229715
0.0253833
0.027799
0.0290676
0.0295521
0.0296803
0.0296417
0.0293826
0.0290003
0.0285992
0.0282096
0.0278495
0.027391
0.0269181
0.0264323
0.0258695
0.0252598
0.0246167
0.023944
0.0231855
0.0224627
0.0216574
0.0207894
0.0197159
0.0183911
0.0168413
0.015239
0.013969
0.0129398
0.0121485
0.0115937
0.011608
0.0123318
0.0134037
0.0140742
0.0143003
0.0141958
0.0138711
0.0136743
0.013675
0.0141129
0.0152865
0.0164931
0.0190506
0.0264341
0.041858
0.0543007
0.0597955
0.0642521
0.0738604
0.103773
0.124283
0.124326
0.116289
0.0957809
0.0957032
0.120068
0.185258
0.183122
0.125638
0.083467
0.0618548
0.0476007
0.03608
0.0249576
0.018029
0.0153987
0.0149155
0.0150968
0.0158758
0.0174871
0.0203685
0.0237859
0.0274512
0.0308689
0.0348388
0.0405111
0.0470727
0.0536283
0.0590837
0.0626671
0.0642344
0.0649216
0.0651239
0.0649424
0.0643832
0.0641063
0.0638661
0.0636951
0.0638438
0.0645217
0.0662973
0.0695335
0.075015
0.0823109
0.0902572
0.0966683
0.0961013
0.0824047
0.0643148
0.0469032
0.0298815
0.0164417
0.00921367
0.00706255
0.00701395
0.00809771
0.012549
0.0279887
0.0430114
0.0463624
0.0448158
0.00272067
0.0037685
0.00700182
0.0142129
0.0177503
0.0184046
0.0186455
0.0192183
0.0204829
0.0234088
0.0275199
0.0318127
0.0344606
0.0345345
0.0339466
0.0325044
0.0298726
0.0266133
0.0234832
0.0225926
0.0228086
0.0235695
0.0252555
0.0282576
0.0310659
0.034229
0.0370159
0.0392779
0.0409334
0.0425377
0.0432653
0.0431965
0.0428233
0.0416875
0.0406365
0.0389892
0.0379421
0.0383856
0.0409567
0.0432946
0.0446082
0.0480804
0.0527598
0.0605253
0.0743541
0.091771
0.113785
0.130358
0.13429
0.122115
0.0575974
0.0300253
0.0212984
0.0186343
0.0175453
0.0163469
0.0147569
0.013413
0.0128385
0.0127634
0.0129875
0.0138091
0.0152203
0.0169018
0.0187034
0.0207493
0.0239589
0.0285314
0.0313555
0.0324854
0.0329418
0.033032
0.0326644
0.03161
0.0307117
0.0299891
0.0293525
0.0287999
0.0283619
0.0280019
0.0275278
0.027081
0.0266417
0.0261352
0.0256031
0.0250416
0.0244847
0.0238596
0.0232989
0.0227683
0.0223413
0.0219781
0.0215122
0.0209334
0.019873
0.0179418
0.0154519
0.0131048
0.0114553
0.0102704
0.00951843
0.00935741
0.0104142
0.0123588
0.0137176
0.014231
0.0142483
0.0138918
0.0131756
0.0126031
0.012592
0.0134488
0.0183507
0.0323974
0.0432584
0.0504051
0.0593605
0.0805867
0.147643
0.181646
0.180673
0.164461
0.122615
0.114758
0.140992
0.1768
0.149351
0.0797226
0.0495047
0.0358392
0.0282003
0.0223111
0.0176513
0.0155053
0.0150912
0.0156303
0.0177037
0.0212963
0.025341
0.0284829
0.0315908
0.0340174
0.0376862
0.0442341
0.0520077
0.0583698
0.0630338
0.065339
0.0673323
0.0684074
0.0689454
0.0690981
0.0682853
0.0674571
0.0660763
0.0649784
0.0638558
0.0630157
0.0621692
0.0617653
0.0626245
0.0654108
0.0729279
0.0858045
0.0995396
0.111191
0.115871
0.107213
0.0814087
0.0571239
0.0350586
0.0183044
0.00964249
0.00704429
0.00694952
0.00830312
0.0154275
0.0306109
0.0368871
0.0375558
0.00354814
0.00334251
0.00405393
0.0057399
0.00965656
0.0138412
0.0164697
0.0174681
0.0178557
0.018129
0.0185212
0.0197412
0.0207504
0.0206458
0.0203003
0.0200869
0.0199459
0.0201838
0.02091
0.0222592
0.0249367
0.0289135
0.0338002
0.0402523
0.0447619
0.0489492
0.0524295
0.0555594
0.0559235
0.0553926
0.0538918
0.0511611
0.0488131
0.0467208
0.0442833
0.0430407
0.0431588
0.044268
0.048268
0.0508774
0.0544607
0.0623075
0.0847648
0.11661
0.13104
0.133059
0.13186
0.129301
0.115086
0.0595183
0.0318852
0.0225668
0.0196728
0.018654
0.017944
0.0170392
0.0158678
0.0143551
0.0130695
0.0128596
0.0130996
0.0141405
0.0160485
0.0186668
0.0220204
0.027155
0.0323047
0.0344024
0.0353305
0.0355833
0.0355375
0.0345875
0.0329392
0.0316252
0.0301038
0.028181
0.026443
0.0252765
0.0247379
0.0244672
0.0240138
0.0235529
0.0231537
0.0227688
0.0224344
0.022115
0.0218358
0.0215029
0.0212037
0.0210009
0.0210124
0.0212279
0.021369
0.0214579
0.0214811
0.02129
0.0207335
0.0189421
0.0156011
0.0121519
0.00980053
0.00832252
0.00749612
0.00738897
0.00881249
0.0115673
0.0132939
0.0137528
0.013435
0.0121244
0.011335
0.0114558
0.0133786
0.0228042
0.0375806
0.0469808
0.0593359
0.0896481
0.172687
0.223572
0.225483
0.199503
0.138026
0.128797
0.156445
0.167379
0.112838
0.0525605
0.0322158
0.0240614
0.0201876
0.0174906
0.0156561
0.0151383
0.0157909
0.0192711
0.0242643
0.0279745
0.031432
0.0333742
0.0352205
0.0386107
0.0460212
0.0536875
0.0594499
0.0636294
0.0672153
0.0703309
0.0731204
0.0746812
0.075916
0.0767347
0.0772458
0.0769541
0.0747925
0.0707385
0.0670277
0.0642247
0.0620817
0.0606044
0.0600286
0.0602384
0.0615534
0.0665756
0.0827649
0.106079
0.123731
0.131475
0.126689
0.0977543
0.062692
0.0355492
0.0175538
0.00928538
0.00712047
0.00721555
0.00971711
0.0199874
0.0283413
0.0307363
0.00415061
0.00367999
0.00367791
0.00491083
0.00614872
0.00791965
0.0100323
0.0121814
0.0141041
0.0153487
0.0155729
0.0154814
0.0156029
0.0161204
0.017012
0.0184257
0.0199995
0.0232509
0.0282306
0.0349552
0.0446997
0.0557751
0.0651887
0.0756768
0.0840318
0.0917735
0.0973358
0.10131
0.100851
0.0986085
0.0937294
0.0846871
0.0751692
0.0671725
0.0608988
0.0573524
0.0566547
0.0570004
0.0576375
0.059127
0.0667318
0.0985903
0.13493
0.14735
0.144423
0.135751
0.127312
0.109183
0.0597849
0.0335506
0.0239795
0.0207964
0.0196714
0.0189565
0.0180949
0.0170685
0.0159546
0.0144045
0.0128888
0.0126381
0.0129766
0.0144909
0.0174296
0.0218508
0.0284799
0.0342266
0.0365715
0.0375681
0.037899
0.0379157
0.0371722
0.0354031
0.0336198
0.0316074
0.0287715
0.026051
0.0233715
0.0207107
0.0188028
0.0176525
0.0167221
0.0157375
0.0147871
0.0140022
0.0135647
0.0133797
0.0133716
0.013429
0.0135265
0.0139117
0.0146281
0.0157303
0.0168802
0.0181753
0.0197301
0.0209203
0.0215289
0.0217349
0.0215007
0.0194437
0.0147981
0.0105118
0.00779374
0.00634038
0.0057138
0.00597321
0.00834251
0.0113315
0.0124495
0.0123016
0.0111593
0.0108392
0.0119261
0.0193811
0.035545
0.0461189
0.0596676
0.0929333
0.179727
0.238481
0.246861
0.225072
0.165857
0.159452
0.171117
0.155313
0.0769676
0.0359775
0.0230626
0.0183258
0.016709
0.0157328
0.0150684
0.0153671
0.0190358
0.0260904
0.0298943
0.0325097
0.0344362
0.0359015
0.0390758
0.0451669
0.0520714
0.0577752
0.0631298
0.0689638
0.0742351
0.0789436
0.0817944
0.0841954
0.0862702
0.0891562
0.0927981
0.0949315
0.0944733
0.0868193
0.0765992
0.0695189
0.063973
0.0606361
0.0591205
0.0587785
0.0588705
0.0599643
0.0643049
0.0801763
0.112084
0.134806
0.143124
0.138774
0.107324
0.0626015
0.0323082
0.0152196
0.00855303
0.00724479
0.00788446
0.0130416
0.0208384
0.0242178
0.00641554
0.00613773
0.0052189
0.00803711
0.00870672
0.0087077
0.00902415
0.00952531
0.0102995
0.011347
0.0122632
0.013413
0.0146729
0.0167511
0.019664
0.0246281
0.0322561
0.0444293
0.0595821
0.0784115
0.0969341
0.113961
0.128616
0.141767
0.151949
0.159707
0.165071
0.168315
0.167675
0.164866
0.15834
0.143749
0.123987
0.106297
0.090491
0.0788549
0.0742621
0.0682342
0.0645852
0.068847
0.0991944
0.135834
0.148458
0.149134
0.141545
0.127385
0.102269
0.0581524
0.034906
0.0253051
0.021867
0.0206068
0.0198171
0.0189558
0.0177678
0.0163808
0.0152848
0.0138089
0.0120586
0.011772
0.0124638
0.0153061
0.0201465
0.0273048
0.0347995
0.037951
0.0393724
0.0400008
0.0402014
0.0401626
0.0391819
0.0372907
0.0351534
0.0321247
0.0288424
0.0260998
0.0232491
0.0198243
0.0169724
0.0148822
0.0130391
0.0112784
0.00965383
0.00818734
0.00699624
0.00608217
0.00534619
0.00477592
0.00440842
0.00439871
0.00495994
0.00616741
0.00766421
0.00940792
0.0124135
0.0159607
0.0189648
0.0210883
0.0222518
0.0227003
0.0222284
0.018469
0.0122222
0.00790013
0.00559816
0.00460601
0.00445725
0.00563369
0.00896837
0.010644
0.0107202
0.010327
0.0109322
0.016109
0.0326208
0.0444396
0.056268
0.0839108
0.169508
0.239184
0.253983
0.243723
0.207752
0.192895
0.176497
0.120383
0.0512528
0.0263389
0.0181411
0.0155062
0.0151195
0.0149937
0.0148882
0.0162831
0.0237147
0.0295211
0.0325127
0.0349111
0.0367525
0.0384649
0.0429485
0.0493543
0.0557
0.0624477
0.0700772
0.0779064
0.0840312
0.0878291
0.0905295
0.0929433
0.0966038
0.103283
0.112022
0.116227
0.116685
0.109941
0.0931824
0.078832
0.0680895
0.0610965
0.0581274
0.0574453
0.0574432
0.0576793
0.0592959
0.0652788
0.0847124
0.121275
0.145142
0.151475
0.144986
0.106001
0.05673
0.0268579
0.0125047
0.00796707
0.00759981
0.00957285
0.0153284
0.018718
0.0106714
0.0124342
0.0138536
0.016646
0.0172622
0.0153965
0.0116517
0.00894484
0.0091946
0.0103413
0.0120242
0.0145432
0.0187059
0.0247471
0.0349167
0.0499984
0.0737837
0.0991669
0.121234
0.136515
0.148523
0.158724
0.167154
0.174248
0.180129
0.184815
0.188055
0.189558
0.189551
0.188256
0.184283
0.174964
0.155966
0.139068
0.116996
0.103701
0.093299
0.0741985
0.0715912
0.0948284
0.127225
0.142253
0.146905
0.143465
0.127126
0.0954236
0.0568289
0.0361286
0.0266572
0.0229076
0.0214206
0.0206097
0.0197444
0.0183456
0.0156744
0.0133614
0.0124703
0.0116822
0.0108662
0.0108631
0.0125603
0.016501
0.0232048
0.0322439
0.0380636
0.0403773
0.0415696
0.0422003
0.042469
0.0425038
0.0416875
0.0395396
0.0364514
0.0324157
0.0293482
0.027153
0.0243345
0.0198553
0.0167302
0.0143461
0.0123219
0.0104886
0.00883108
0.0073384
0.00604939
0.00492432
0.00387698
0.00295238
0.00216104
0.00161907
0.00140741
0.00150819
0.00186988
0.00239737
0.00358772
0.00665231
0.0116084
0.0162351
0.0199297
0.0224202
0.0235939
0.0237357
0.0216629
0.0144499
0.00829687
0.00507909
0.0037497
0.00342221
0.0040324
0.00681084
0.0087958
0.00922201
0.00985809
0.0130021
0.0264213
0.0409044
0.0517948
0.0723079
0.138039
0.223924
0.249668
0.244315
0.220638
0.198273
0.162318
0.0793283
0.0356456
0.0209037
0.0155163
0.0141487
0.0142949
0.0145746
0.0148641
0.0185203
0.0272668
0.0319733
0.0347257
0.0363168
0.0379004
0.0407408
0.0454043
0.0515946
0.0592588
0.0686238
0.0789693
0.085401
0.0906126
0.0936396
0.0964827
0.100394
0.107594
0.117153
0.122539
0.124063
0.12327
0.118379
0.103721
0.0843632
0.0703706
0.0612829
0.0561913
0.0548604
0.0549357
0.0553842
0.0566535
0.0603707
0.0697294
0.0963488
0.133976
0.154465
0.156917
0.145043
0.0938711
0.046287
0.0205352
0.0101697
0.00785286
0.00835938
0.011666
0.0148231
0.0155019
0.0238723
0.0285298
0.0284415
0.028108
0.0260561
0.0204763
0.0135057
0.0121126
0.0136306
0.0177642
0.0244845
0.0344214
0.0499044
0.0768833
0.107426
0.127387
0.138242
0.147468
0.155894
0.163257
0.169684
0.17558
0.180652
0.184867
0.187997
0.189323
0.189655
0.189486
0.18756
0.181958
0.171622
0.157144
0.144052
0.130858
0.106363
0.0794761
0.0707625
0.0918923
0.116184
0.131068
0.138262
0.138297
0.122324
0.0888269
0.0570203
0.0372331
0.0277521
0.0236438
0.0220052
0.0212836
0.020416
0.01907
0.0158469
0.0115452
0.010066
0.00977292
0.00968548
0.0097645
0.0104716
0.0126963
0.0174768
0.0258438
0.0361614
0.0404747
0.0424213
0.0434551
0.0441047
0.0444612
0.0445517
0.0438223
0.0409517
0.0368712
0.0318621
0.0290439
0.0281623
0.0260387
0.0206461
0.017035
0.0145004
0.0126064
0.0111104
0.00984804
0.0087871
0.00772852
0.00644807
0.00496251
0.00349651
0.00227111
0.00141525
0.000921184
0.000654056
0.00056424
0.000610326
0.000832466
0.00148345
0.00347029
0.00820318
0.013462
0.018309
0.0221893
0.0242592
0.0247128
0.0234001
0.0162477
0.00850326
0.00458647
0.00303297
0.00263992
0.00305183
0.00526976
0.00692162
0.00815871
0.0111498
0.0227672
0.037681
0.0465811
0.0595137
0.095277
0.183126
0.231917
0.234746
0.21726
0.185452
0.110782
0.05119
0.0269778
0.0179476
0.0142176
0.0134559
0.0137669
0.0142441
0.0150562
0.0204673
0.029674
0.0341334
0.0363481
0.0382275
0.0399963
0.0432014
0.0481728
0.0548606
0.0644973
0.075951
0.0853078
0.0915672
0.0959811
0.0997125
0.104324
0.110969
0.117809
0.122408
0.124687
0.125127
0.124106
0.119868
0.106333
0.0857486
0.0709263
0.0600878
0.0534589
0.0512815
0.0512615
0.0516782
0.0528611
0.0563237
0.0637456
0.0782299
0.11362
0.148334
0.161634
0.159936
0.135328
0.0741238
0.0340066
0.0148212
0.00872994
0.00813166
0.00952541
0.0122916
0.0183816
0.0342844
0.0386099
0.0376501
0.0387197
0.0364071
0.0289041
0.0221269
0.0204821
0.0229842
0.0303409
0.0430153
0.0664856
0.100993
0.124914
0.134466
0.139743
0.146464
0.154732
0.160795
0.16448
0.165811
0.166103
0.166341
0.166898
0.166879
0.166604
0.166052
0.164472
0.159643
0.151393
0.141091
0.12925
0.112412
0.0938535
0.0793352
0.0759473
0.0855919
0.107651
0.118151
0.124547
0.124361
0.112175
0.087365
0.0579963
0.0392367
0.0292249
0.0245116
0.0224678
0.0215522
0.0205787
0.0192322
0.0166567
0.0125239
0.00913305
0.00820155
0.00813156
0.00840614
0.00907627
0.0102937
0.012705
0.0180932
0.0288165
0.0382499
0.0418412
0.0435441
0.0444245
0.0452936
0.0458294
0.0459723
0.0448981
0.0414412
0.035843
0.0291362
0.0276158
0.0283089
0.0274452
0.0229055
0.0181956
0.0157224
0.0149293
0.0150668
0.0153478
0.0156108
0.0153826
0.0139859
0.0114973
0.00833793
0.00521092
0.00280966
0.00137228
0.00068039
0.000408951
0.000300106
0.000280132
0.000369253
0.000762367
0.00209675
0.0053052
0.0101413
0.0162062
0.0216415
0.0247044
0.025337
0.024152
0.0167038
0.00812829
0.00396894
0.00239637
0.00204001
0.00240691
0.00405228
0.00546206
0.00782061
0.0157294
0.032969
0.0417533
0.0493033
0.067943
0.118266
0.176627
0.199598
0.185839
0.128739
0.0678884
0.0356568
0.0222806
0.016346
0.0136049
0.0130921
0.0133727
0.0139347
0.01505
0.0212902
0.0310548
0.0357494
0.0375583
0.038917
0.0411121
0.044334
0.0495295
0.0572289
0.0689705
0.0817859
0.0899944
0.0965017
0.100859
0.105617
0.112126
0.117636
0.120607
0.123075
0.124642
0.124456
0.123261
0.119141
0.1059
0.0844238
0.0688407
0.0572144
0.0498195
0.0470761
0.0469562
0.047375
0.0484264
0.0508534
0.0586077
0.0698563
0.0946937
0.134935
0.161237
0.165965
0.157776
0.111161
0.0536147
0.0229066
0.0108668
0.00825673
0.00855876
0.0105948
0.0199129
0.0401464
0.0437905
0.0535021
0.0562918
0.0463222
0.0315462
0.025457
0.0258063
0.0323016
0.0484723
0.0791429
0.115573
0.129073
0.134029
0.136321
0.137478
0.137608
0.134825
0.126858
0.121039
0.118858
0.117881
0.117419
0.117082
0.116051
0.115323
0.114012
0.11153
0.107935
0.103717
0.0973726
0.0906282
0.0825626
0.0793709
0.0789353
0.0844909
0.100018
0.107106
0.110814
0.110573
0.103369
0.0875496
0.0640239
0.0420953
0.0312262
0.0258746
0.0233977
0.0223449
0.0215296
0.0200818
0.0174373
0.013858
0.0105582
0.00809853
0.0073362
0.00729887
0.00768589
0.00866335
0.0102333
0.0129121
0.0193789
0.0303568
0.0391886
0.0425917
0.0440363
0.0453045
0.04663
0.0473147
0.0474307
0.0451113
0.0404796
0.0326646
0.0275775
0.0263363
0.0270702
0.0279631
0.0256689
0.0202644
0.0185056
0.0202477
0.0245835
0.0277687
0.0301317
0.03137
0.030559
0.0271975
0.0216221
0.0145044
0.00829777
0.0039356
0.00162142
0.000646812
0.000311017
0.000209931
0.000187961
0.000231893
0.000474796
0.00118593
0.00266995
0.00608886
0.0134218
0.0210463
0.0249964
0.0256146
0.0240681
0.0154804
0.00705822
0.00320001
0.00183102
0.00157832
0.00190004
0.00298588
0.00482504
0.00981499
0.0260886
0.0378793
0.0422115
0.049095
0.0729835
0.108414
0.124687
0.113527
0.0754261
0.0441663
0.0272878
0.0195912
0.0153951
0.0132468
0.0128322
0.013066
0.0136462
0.0149064
0.0209804
0.0318804
0.0364652
0.0386359
0.039879
0.0414703
0.044566
0.0501086
0.0610608
0.0743751
0.0865366
0.0939355
0.0996161
0.104249
0.110137
0.116185
0.11964
0.121071
0.122745
0.122997
0.122159
0.119907
0.114008
0.0970003
0.0743652
0.0612441
0.0529288
0.0463088
0.0427668
0.0421612
0.0424993
0.0436729
0.0461668
0.0537319
0.0650338
0.0828272