/*--------------------------------*- C++ -*----------------------------------*\
  =========                 |
  \\      /  F ield         | OpenFOAM: The Open Source CFD Toolbox
   \\    /   O peration     | Website:  https://openfoam.org
    \\  /    A nd           | Version:  6
     \\/     M anipulation  |
\*---------------------------------------------------------------------------*/
FoamFile
{
    version     2.0;
    format      ascii;
    class       volScalarField;
    location    "0.2";
    object      k_0;
}
// * * * * * * * * * * * * * * * * * * * * * * * * * * * * * * * * * * * * * //

dimensions      [0 2 -2 0 0 0 0];

internalField   nonuniform List<scalar> 
12225
(
4.87179e-05
0.000205601
0.000677459
0.000982846
0.000994785
0.000782915
0.000378811
0.000211724
0.000181145
0.000199239
0.000279429
0.000333889
0.000349822
0.000349086
0.000328714
0.000247584
0.00016031
8.59994e-05
2.08806e-05
3.42805e-05
0.000104524
0.000177787
0.000187076
0.000169376
0.000108534
7.22817e-05
6.16368e-05
6.15888e-05
6.90937e-05
9.81417e-05
0.000136283
0.000163621
0.000174293
0.000174255
0.000170312
0.000152329
2.00976e-05
1.51134e-05
1.71849e-05
2.29022e-05
2.4275e-05
2.35214e-05
2.09407e-05
1.98292e-05
1.97931e-05
2.05209e-05
2.29471e-05
2.76297e-05
3.37703e-05
3.75558e-05
4.02353e-05
4.52303e-05
4.91173e-05
5.05483e-05
2.00179e-05
1.98894e-05
1.98264e-05
1.98916e-05
2.01106e-05
2.01256e-05
1.98904e-05
1.91341e-05
1.87031e-05
1.84495e-05
1.80009e-05
1.68953e-05
1.46171e-05
1.38728e-05
1.39989e-05
1.45301e-05
1.59965e-05
1.76928e-05
2.28737e-05
2.17546e-05
2.13421e-05
2.16761e-05
2.44654e-05
2.78339e-05
2.78398e-05
2.65181e-05
2.42141e-05
2.31527e-05
2.27651e-05
2.27225e-05
2.27808e-05
2.29774e-05
2.33777e-05
2.41989e-05
2.68924e-05
2.77551e-05
2.42172e-05
2.13313e-05
2.15144e-05
2.15879e-05
2.20672e-05
2.25642e-05
2.27784e-05
2.29623e-05
2.38246e-05
2.58929e-05
3.0026e-05
3.3227e-05
3.5112e-05
3.70941e-05
4.13172e-05
4.91738e-05
5.69076e-05
6.34474e-05
3.31584e-05
2.36853e-05
2.19414e-05
2.17266e-05
2.10081e-05
2.08051e-05
2.08091e-05
2.09789e-05
2.18697e-05
2.49475e-05
2.72522e-05
2.73672e-05
2.74854e-05
2.76826e-05
2.8099e-05
2.94783e-05
3.21092e-05
3.49584e-05
2.25265e-05
2.24553e-05
2.3825e-05
2.3605e-05
2.14449e-05
2.07224e-05
2.05902e-05
2.06019e-05
2.07495e-05
2.1282e-05
2.29938e-05
2.6522e-05
2.93906e-05
3.12742e-05
3.22666e-05
3.26562e-05
3.27287e-05
3.26805e-05
2.28679e-05
2.13949e-05
2.07168e-05
2.06858e-05
2.08325e-05
2.14172e-05
2.19228e-05
2.21839e-05
2.22944e-05
2.23828e-05
2.25515e-05
2.29292e-05
2.40045e-05
2.6765e-05
2.90186e-05
3.02277e-05
3.06191e-05
3.07175e-05
2.5054e-05
2.30726e-05
2.22984e-05
2.28277e-05
2.29937e-05
2.27416e-05
2.2248e-05
2.21134e-05
2.21332e-05
2.23077e-05
2.28426e-05
2.33782e-05
2.36727e-05
2.37358e-05
2.37288e-05
2.36238e-05
2.34156e-05
2.33515e-05
2.00329e-05
2.02014e-05
2.135e-05
2.32587e-05
2.38194e-05
2.37382e-05
2.27189e-05
2.15527e-05
2.12523e-05
2.13251e-05
2.21202e-05
2.65756e-05
3.45551e-05
3.69513e-05
3.64878e-05
3.30228e-05
2.86486e-05
2.60073e-05
2.03431e-05
2.07568e-05
2.11685e-05
2.23729e-05
2.53814e-05
2.68555e-05
2.69496e-05
2.62416e-05
2.50009e-05
2.47084e-05
2.48987e-05
2.6486e-05
3.33579e-05
4.1148e-05
4.40264e-05
4.39964e-05
4.19154e-05
3.48628e-05
2.15741e-05
2.37658e-05
2.32947e-05
2.18681e-05
2.18937e-05
2.31113e-05
2.71251e-05
3.18987e-05
3.73486e-05
4.42065e-05
5.07534e-05
6.09139e-05
8.67866e-05
0.00011284
0.000124035
0.000124351
0.000113663
7.9607e-05
2.09006e-05
2.10674e-05
2.06332e-05
2.07994e-05
2.22129e-05
2.35904e-05
2.45913e-05
2.66385e-05
3.25949e-05
5.68936e-05
0.000153209
0.000243144
0.000273713
0.000267839
0.000206953
0.000123563
7.74306e-05
5.23333e-05
2.54774e-05
2.37533e-05
2.23373e-05
2.19506e-05
2.19451e-05
2.20587e-05
2.23324e-05
2.26182e-05
2.31842e-05
2.46574e-05
2.97847e-05
4.9393e-05
8.65165e-05
0.000106094
0.000108823
0.00010565
9.20878e-05
7.20248e-05
2.82545e-05
2.54321e-05
2.28922e-05
2.22745e-05
2.29353e-05
2.43736e-05
2.49916e-05
2.50458e-05
2.46046e-05
2.42513e-05
2.44012e-05
2.5324e-05
2.77404e-05
2.99085e-05
3.1065e-05
3.14404e-05
3.1343e-05
3.07521e-05
2.33372e-05
2.35015e-05
2.19789e-05
2.20149e-05
2.3593e-05
2.73446e-05
3.00805e-05
3.05505e-05
3.01562e-05
2.77535e-05
2.45674e-05
2.29787e-05
2.2375e-05
2.22523e-05
2.22503e-05
2.23499e-05
2.29345e-05
2.54681e-05
2.00665e-05
2.07516e-05
2.33093e-05
2.66238e-05
3.09825e-05
3.35308e-05
3.32474e-05
2.94853e-05
2.40512e-05
2.17824e-05
2.13892e-05
2.18257e-05
2.28017e-05
2.27836e-05
2.21412e-05
2.1856e-05
2.18667e-05
2.21261e-05
2.05296e-05
2.383e-05
2.39516e-05
2.31327e-05
2.2983e-05
2.3235e-05
2.49845e-05
2.63313e-05
2.61407e-05
2.42756e-05
2.26831e-05
2.21684e-05
2.19037e-05
2.15543e-05
2.1282e-05
2.11958e-05
2.12025e-05
2.13621e-05
2.02179e-05
2.06153e-05
2.06694e-05
2.06299e-05
2.06319e-05
2.07759e-05
2.11881e-05
2.14618e-05
2.15176e-05
2.15206e-05
2.15973e-05
2.18992e-05
2.21186e-05
2.21586e-05
2.20383e-05
2.18478e-05
2.1822e-05
2.18807e-05
2.10648e-05
2.12597e-05
2.07871e-05
2.05786e-05
2.06137e-05
2.10234e-05
2.16489e-05
2.1868e-05
2.18947e-05
2.18885e-05
2.18982e-05
2.19908e-05
2.23969e-05
2.28194e-05
2.29469e-05
2.29244e-05
2.27042e-05
2.25249e-05
2.16526e-05
2.35985e-05
2.3029e-05
2.23841e-05
2.23194e-05
2.29545e-05
2.37691e-05
2.36513e-05
2.36e-05
2.37205e-05
2.45194e-05
2.80366e-05
3.47448e-05
3.94924e-05
4.14217e-05
4.14081e-05
3.91679e-05
3.33094e-05
2.01303e-05
2.54902e-05
3.28833e-05
3.24582e-05
2.84642e-05
2.51426e-05
2.43695e-05
2.42003e-05
2.5134e-05
2.74218e-05
2.86239e-05
2.90696e-05
2.91097e-05
2.89467e-05
2.88706e-05
2.89508e-05
2.95867e-05
3.29257e-05
2.18074e-05
2.67962e-05
2.6635e-05
2.36016e-05
2.29528e-05
2.25635e-05
2.12118e-05
2.06272e-05
2.05699e-05
2.07283e-05
2.15418e-05
2.48515e-05
2.91035e-05
3.09356e-05
3.10492e-05
3.01273e-05
2.83043e-05
2.74747e-05
2.06646e-05
2.21453e-05
2.18883e-05
2.21211e-05
2.32676e-05
2.52718e-05
2.47859e-05
2.24512e-05
2.16307e-05
2.17493e-05
2.32572e-05
2.53868e-05
2.59844e-05
2.59318e-05
2.53099e-05
2.43023e-05
2.37925e-05
2.36608e-05
2.05661e-05
2.14303e-05
2.14406e-05
2.14232e-05
2.17172e-05
2.29799e-05
2.36509e-05
2.34972e-05
2.32512e-05
2.35719e-05
2.60565e-05
3.00087e-05
3.11842e-05
3.11101e-05
2.99444e-05
2.67566e-05
2.47114e-05
2.38034e-05
2.00109e-05
2.00102e-05
2.00065e-05
1.9969e-05
1.98435e-05
1.95837e-05
1.93046e-05
1.9154e-05
1.94123e-05
2.02341e-05
2.0619e-05
2.06812e-05
2.06482e-05
2.04821e-05
1.99745e-05
1.94816e-05
1.93747e-05
1.94944e-05
2.00011e-05
1.87767e-05
1.84685e-05
1.74122e-05
1.64882e-05
1.60092e-05
1.57966e-05
1.57493e-05
1.58348e-05
1.64084e-05
1.71758e-05
1.75644e-05
1.76789e-05
1.76675e-05
1.74802e-05
1.67255e-05
1.59549e-05
1.54028e-05
2.00043e-05
2.01238e-05
2.06604e-05
2.25551e-05
2.74295e-05
2.97601e-05
2.99107e-05
2.91336e-05
2.63696e-05
2.42922e-05
2.3151e-05
2.25142e-05
2.22209e-05
2.20281e-05
2.17315e-05
2.13876e-05
2.10243e-05
2.06832e-05
2.05063e-05
2.19356e-05
2.99057e-05
5.26119e-05
7.29779e-05
8.08329e-05
8.0962e-05
7.45505e-05
5.61719e-05
4.33835e-05
3.57031e-05
3.08041e-05
2.73972e-05
2.47968e-05
2.26697e-05
2.09425e-05
1.96507e-05
1.88747e-05
0.00114148
0.00273688
0.00576814
0.00570076
0.00737813
0.0218682
0.0255805
0.0237579
0.0236443
0.0244106
0.0257746
0.0267114
0.0272227
0.0275994
0.0277437
0.0277854
0.0276481
0.0272417
0.0269592
0.0267283
0.0265223
0.0263248
0.0262637
0.0263281
0.026617
0.0271536
0.0276197
0.0279963
0.0282506
0.0283652
0.0283905
0.0283896
0.0284584
0.0286886
0.0290712
0.0296667
0.0303703
0.0309851
0.0313897
0.0316461
0.0318971
0.0321334
0.0322768
0.0324586
0.0331038
0.0365867
0.0426401
0.0495972
0.0686451
0.1231
0.142907
0.157487
0.174308
0.29729
0.272401
0.0961163
0.0644005
0.0590778
0.058119
0.0576115
0.0572124
0.0567152
0.0551822
0.053012
0.0498548
0.0457884
0.0418125
0.0373309
0.0331789
0.0302362
0.0272305
0.0257723
0.0248252
0.0245561
0.0244742
0.0244328
0.024446
0.0245391
0.0246655
0.0248613
0.0251068
0.0254096
0.025733
0.0261591
0.0266476
0.027187
0.0278285
0.0285619
0.0294128
0.0303828
0.031519
0.0327731
0.0342234
0.0358439
0.0377423
0.0399458
0.0428829
0.0475272
0.0572464
0.0755476
0.095781
0.113004
0.123844
0.128358
0.12908
0.128072
0.12639
0.126167
0.126458
0.126714
0.126069
0.122764
0.119799
0.119124
0.118316
0.116948
0.116809
0.117703
0.119259
0.122478
0.126444
0.159374
0.333667
0.432515
0.43486
0.426436
0.412524
0.385783
0.341975
0.287588
0.240978
0.217696
0.209909
0.187395
0.129943
0.0717237
0.0394022
0.0303376
0.0282779
0.0278667
0.0274667
0.026676
0.0252006
0.0234431
0.0213588
0.0192519
0.0175104
0.0163069
0.0156325
0.0154094
0.0158637
0.0161339
0.0164288
0.016741
0.0169784
0.0171501
0.0172365
0.0172593
0.0172001
0.017139
0.017106
0.0172398
0.0175451
0.0181329
0.019142
0.0206064
0.0222978
0.02403
0.0267165
0.0322627
0.0468848
0.0890045
0.123454
0.133011
0.130231
0.124554
0.128298
0.16502
0.226976
0.232083
0.00414736
0.00636059
0.0156467
0.0204204
0.0198639
0.0203365
0.0174647
0.0162723
0.0170062
0.0190969
0.0204783
0.021429
0.0225245
0.0236981
0.0248834
0.0258214
0.0264499
0.0267487
0.0267765
0.0266571
0.0263548
0.0259136
0.0255161
0.0253685
0.0255785
0.0265167
0.0274157
0.0279561
0.0281569
0.0281477
0.0278983
0.0268261
0.0254989
0.0250571
0.0252312
0.026378
0.0275392
0.0278689
0.0278791
0.0278903
0.0281356
0.0293766
0.0313961
0.0322845
0.0328236
0.0344087
0.0369186
0.0386346
0.0436491
0.0528795
0.0691454
0.17687
0.251055
0.218695
0.109797
0.0618268
0.0495984
0.0448979
0.0411345
0.0375385
0.0340788
0.0314142
0.0286096
0.0259822
0.0234894
0.0213208
0.0199653
0.0181774
0.017276
0.0166658
0.0162461
0.016076
0.0160207
0.0160573
0.0161821
0.0162221
0.0162486
0.0162524
0.0162369
0.0161955
0.0161582
0.0160946
0.0160187
0.0159429
0.0158701
0.0157832
0.0157194
0.0156496
0.0155768
0.0154877
0.0154422
0.01542
0.0154719
0.0156144
0.0159002
0.0162857
0.016751
0.0173285
0.0182558
0.0199167
0.022899
0.0274087
0.0326202
0.0368284
0.0393925
0.0408713
0.0421733
0.0431752
0.0438831
0.0444897
0.0446623
0.0446236
0.0448093
0.0460727
0.0490167
0.0526529
0.0571708
0.0596213
0.0605815
0.0632449
0.07069
0.0897562
0.17632
0.243748
0.234827
0.227515
0.229077
0.219976
0.198348
0.198978
0.217859
0.251589
0.259654
0.204716
0.111403
0.0493666
0.0281954
0.0220698
0.0199195
0.0186699
0.0177225
0.017016
0.0164533
0.0162012
0.0161352
0.0165252
0.0171563
0.0182434
0.019433
0.0208782
0.0224979
0.024202
0.0258919
0.0277123
0.0290861
0.0297646
0.0300175
0.0294831
0.0280561
0.0259505
0.0231773
0.0204063
0.0177173
0.0151138
0.0127436
0.0107668
0.00933564
0.00850434
0.00824283
0.00845558
0.0103617
0.0176561
0.0382349
0.080219
0.105263
0.112619
0.115025
0.122105
0.144149
0.158984
0.00660442
0.0125749
0.0202021
0.018756
0.0159644
0.0153315
0.0166903
0.0193428
0.0257302
0.0311249
0.033682
0.0345385
0.0334661
0.0324667
0.0313498
0.0299791
0.0288471
0.0279411
0.0273037
0.0269033
0.0267586
0.0267644
0.0269544
0.0276224
0.0285657
0.0297074
0.030834
0.0317951
0.0323579
0.032406
0.0320469
0.030234
0.0260156
0.022348
0.0204406
0.020353
0.0215795
0.0233909
0.0242317
0.0246402
0.0253845
0.0276704
0.0295696
0.0303934
0.0315114
0.0322655
0.0325509
0.0331821
0.0360396
0.0565945
0.165958
0.201693
0.149628
0.0693278
0.0404526
0.0289841
0.0241851
0.0201486
0.01714
0.0156081
0.0147766
0.0143743
0.0142273
0.0142364
0.0140888
0.0137498
0.0134892
0.0133449
0.0132964
0.0133414
0.0136542
0.0145236
0.0159861
0.0175783
0.018422
0.0189516
0.0192367
0.0193456
0.0193662
0.0192483
0.0189957
0.0187903
0.0184572
0.0180739
0.0177248
0.0172699
0.0168402
0.0164084
0.0160496
0.0156585
0.0153297
0.0150311
0.0147656
0.0145408
0.0143368
0.0142307
0.0142626
0.0143989
0.0145953
0.014831
0.0152149
0.0160023
0.0172067
0.018212
0.0188544
0.0194632
0.0204265
0.0226124
0.0249214
0.0265512
0.0279302
0.0298059
0.033973
0.0409398
0.0487756
0.0560347
0.0625369
0.0659934
0.0657947
0.0628674
0.0627985
0.0655906
0.0847793
0.102985
0.123455
0.179433
0.207947
0.210237
0.201109
0.198045
0.199765
0.19117
0.152738
0.0894713
0.0383909
0.0215302
0.0167364
0.0150255
0.0142528
0.0136766
0.0133668
0.0132372
0.0132192
0.0135373
0.0141052
0.0150324
0.0163878
0.0183792
0.0216742
0.0277485
0.0369121
0.0447277
0.050357
0.0535493
0.0554827
0.0567618
0.0576261
0.0581779
0.0585201
0.0585922
0.0580024
0.0547161
0.0483887
0.0403209
0.0326125
0.0251925
0.0183499
0.012692
0.00880535
0.00680552
0.00628264
0.00659211
0.00870036
0.0151065
0.0352052
0.0663063
0.0780828
0.0794743
0.0779633
0.0761663
0.00528368
0.00961133
0.0190294
0.0184254
0.0163503
0.0161279
0.0184039
0.0244863
0.0324203
0.0377083
0.0405571
0.0414248
0.0413506
0.0407746
0.0394727
0.0371217
0.0336418
0.030223
0.0278774
0.0268738
0.0265008
0.0264951
0.0266762
0.0277826
0.029832
0.0317997
0.0336809
0.0353588
0.0365871
0.0374982
0.0382372
0.0388289
0.0391395
0.0391718
0.0385644
0.0370538
0.0365064
0.0364098
0.0361658
0.0350073
0.0340144
0.0344349
0.0382123
0.0409712
0.0400202
0.0360365
0.0353301
0.0376192
0.0603562
0.14213
0.1699
0.137141
0.0556983
0.030662
0.021759
0.0178426
0.0151762
0.0127591
0.0119645
0.011774
0.0118372
0.0124589
0.0134727
0.0144267
0.0152279
0.0156335
0.0162533
0.0172255
0.0183455
0.0196418
0.0210428
0.022311
0.023139
0.0237241
0.0243127
0.0245458
0.0246184
0.024611
0.0243851
0.0241064
0.0238781
0.0234019
0.0229231
0.022431
0.0218028
0.0211931
0.0204798
0.0197056
0.0189339
0.0180625
0.0172058
0.0163397
0.0155033
0.0147517
0.014203
0.0137322
0.0134131
0.013406
0.0137274
0.0140777
0.0143277
0.0145054
0.0145719
0.0144312
0.0141027
0.0139518
0.0140665
0.0151271
0.0191366
0.0226439
0.0245381
0.0271662
0.0337624
0.0457248
0.0579471
0.0668216
0.070724
0.0754211
0.0898558
0.0969414
0.0950286
0.0829509
0.0827323
0.0874398
0.112573
0.186567
0.204455
0.184966
0.14888
0.123691
0.0994775
0.0768647
0.0526687
0.0300927
0.0187823
0.0156269
0.0148719
0.0146915
0.0146006
0.0148515
0.0156281
0.0170988
0.0197178
0.0231911
0.027375
0.0326312
0.038902
0.0454704
0.0518404
0.0563015
0.059362
0.0609421
0.0618598
0.0622936
0.0627264
0.0630323
0.063426
0.0640282
0.0651696
0.0670191
0.0701659
0.0744585
0.0778655
0.0775854
0.0695489
0.0570565
0.0448986
0.032647
0.0212373
0.012763
0.00846031
0.00732777
0.00745297
0.00870394
0.0129354
0.0266881
0.0490316
0.0580393
0.0580695
0.0521172
0.00297192
0.00614116
0.0155912
0.0188865
0.0183797
0.0181313
0.0187189
0.0212299
0.0277413
0.0343235
0.0390939
0.0414902
0.0420723
0.0419383
0.0413223
0.03975
0.0360311
0.0314888
0.0277732
0.0254708
0.0245573
0.0246167
0.025235
0.0268027
0.0294116
0.0322041
0.0347323
0.036712
0.0381227
0.0390517
0.0395339
0.0399323
0.0405097
0.0412274
0.0416373
0.041547
0.0411565
0.0411262
0.0414869
0.0412706
0.0387638
0.0383405
0.0395408
0.043017
0.0446003
0.0458301
0.0513204
0.0833145
0.132784
0.146013
0.129097
0.0555746
0.0286958
0.0206763
0.0176496
0.0161385
0.0139907
0.0124164
0.0120121
0.0119718
0.0122495
0.0130715
0.0143647
0.0157417
0.0169096
0.0177251
0.0187174
0.0205677
0.0228231
0.0251948
0.0276188
0.0289904
0.0295147
0.0296616
0.0296366
0.0293981
0.0290255
0.0286266
0.0282346
0.0278749
0.0274191
0.0269439
0.0264566
0.0258925
0.0252786
0.02463
0.0239511
0.0231837
0.0224503
0.0216313
0.0207435
0.0196555
0.0183179
0.016768
0.0151854
0.0139364
0.0129205
0.0121412
0.0115992
0.0116453
0.0123941
0.0134576
0.0141041
0.0143128
0.014194
0.0138621
0.0136676
0.0136742
0.0141452
0.0153401
0.016571
0.0192029
0.0268396
0.0423196
0.0546404
0.0600415
0.0645484
0.0743148
0.104555
0.124438
0.124331
0.115936
0.0957106
0.0959258
0.121789
0.186162
0.182515
0.123894
0.0825622
0.0611779
0.047052
0.0356342
0.0246619
0.0179022
0.0153563
0.0148948
0.0150863
0.0158876
0.0175304
0.0204329
0.0238439
0.0274829
0.0308576
0.0347915
0.0404131
0.0469279
0.0534592
0.0589079
0.0625686
0.0641706
0.0648702
0.0650753
0.0648998
0.0643493
0.0640801
0.0638512
0.063688
0.0638672
0.0645917
0.0664
0.0696718
0.0751902
0.0825144
0.0904131
0.0965896
0.0955078
0.0812088
0.0633715
0.0461087
0.0292542
0.016051
0.00905054
0.00702667
0.00701121
0.00815719
0.0127466
0.0284217
0.0431493
0.0463071
0.0446436
0.00272055
0.00377255
0.00702025
0.0142403
0.0177633
0.0184124
0.0186537
0.019229
0.0205005
0.023446
0.0275749
0.031874
0.0345098
0.0345803
0.0339913
0.0325476
0.0299062
0.026622
0.0234834
0.0225914
0.0228102
0.0235748
0.0252733
0.0282715
0.0310806
0.034246
0.037025
0.039274
0.0409307
0.0425319
0.0432467
0.0431764
0.0427993
0.0416585
0.0406235
0.0390043
0.0379985
0.0384588
0.0410874
0.0433871
0.0447126
0.0482092
0.0529099
0.0608873
0.0750848
0.0927538
0.114766
0.130806
0.134473
0.121435
0.0570718
0.029893
0.0212905
0.0186654
0.0175945
0.0164306
0.0148746
0.0135207
0.0128763
0.0127758
0.0129663
0.0137455
0.0151264
0.0168037
0.0186167
0.0206434
0.0237575
0.0282828
0.0312815
0.0324648
0.0329484
0.0330527
0.0327278
0.0316975
0.0307857
0.0300592
0.0294251
0.0288711
0.0284274
0.0280674
0.0275959
0.0271482
0.02671
0.0262044
0.0256707
0.0251056
0.0245446
0.0239134
0.0233449
0.0228054
0.0223679
0.021995
0.0215204
0.020913
0.0198042
0.0178304
0.0153336
0.0130332
0.0114099
0.0102474
0.00951248
0.00938807
0.0105073
0.0124463
0.0137654
0.0142503
0.014253
0.0138761
0.0131583
0.012602
0.0126061
0.0135214
0.018673
0.0329094
0.0436153
0.0507045
0.059759
0.0815275
0.149185
0.18184
0.180589
0.163624
0.121978
0.114908
0.142429
0.176928
0.14776
0.0784857
0.0489248
0.0354768
0.0279367
0.0221196
0.0175516
0.0154661
0.015078
0.0156436
0.0177772
0.0213969
0.025434
0.0285265
0.0316014
0.0339994
0.0376347
0.044126
0.0518773
0.0582579
0.0629631
0.0652886
0.0672777
0.0683445
0.0688725
0.0690171
0.0681808
0.0673291
0.0659605
0.0648948
0.0638156
0.0630072
0.0621862
0.0618593
0.0627892
0.065738
0.073497
0.0864497
0.100026
0.111442
0.115638
0.106027
0.0799983
0.0560777
0.0342787
0.0178389
0.00945369
0.00699902
0.00694364
0.0083736
0.01576
0.0308092
0.0368837
0.0374769
0.00354846
0.00334331
0.00405734
0.00575003
0.00968226
0.0138663
0.0164868
0.0174779
0.0178636
0.0181385
0.018537
0.0197748
0.020788
0.020681
0.0203302
0.0201074
0.0199492
0.0201857
0.0209061
0.0222471
0.0249105
0.0288674
0.0337576
0.0401824
0.0446505
0.0488221
0.0522983
0.0553988
0.055747
0.0552173
0.0537252
0.0510419
0.0487449
0.0466738
0.0442534
0.0430426
0.0431712
0.0443244
0.0483785
0.0509547
0.0545735
0.0625382
0.0855051
0.117278
0.131462
0.13338
0.132089
0.129418
0.114467
0.0587129
0.0317037
0.0225494
0.0197001
0.0186909
0.0179947
0.0170967
0.0159481
0.014461
0.0130985
0.0128544
0.0130605
0.0140495
0.0159203
0.0185247
0.0218452
0.0268832
0.0321905
0.0343642
0.0353416
0.0356156
0.0355887
0.0346942
0.0330553
0.0317326
0.0302545
0.0283632
0.0266295
0.0254457
0.0248961
0.0246221
0.0241696
0.0237182
0.0233294
0.0229534
0.0226231
0.0223031
0.02202
0.0216791
0.0213686
0.0211434
0.0211327
0.0213219
0.0214365
0.021504
0.0215041
0.0212934
0.0206897
0.0187995
0.0154258
0.0120323
0.00973012
0.00828861
0.00748724
0.00741903
0.00893538
0.0116785
0.0133496
0.0137708
0.0134225
0.0120887
0.0113283
0.0114729
0.0135047
0.0232726
0.0379667
0.0473056
0.0598495
0.0909596
0.174743
0.224121
0.225499
0.198135
0.137342
0.129106
0.15751
0.167182
0.110829
0.0517093
0.0318615
0.0238606
0.0200517
0.0174041
0.0156164
0.0151259
0.0158089
0.0193939
0.024379
0.0280508
0.0314719
0.033386
0.0352035
0.0385585
0.0459304
0.0535964
0.059386
0.0635751
0.0671585
0.0702711
0.0730408
0.0745781
0.0757662
0.0765136
0.0769521
0.0765739
0.0743661
0.070392
0.0668023
0.0640989
0.0620433
0.0606025
0.0600821
0.0603266
0.0617385
0.0671415
0.0839448
0.107025
0.124229
0.131467
0.125909
0.0958365
0.0613626
0.0346779
0.0170909
0.00911623
0.00708245
0.00721636
0.00983873
0.0202473
0.0283968
0.0306939
0.00415012
0.00367664
0.00367741
0.00490782
0.00614824
0.00792538
0.010045
0.0121985
0.0141212
0.015361
0.0155814
0.0154884
0.0156087
0.0161253
0.0170151
0.0184207
0.0199818
0.0232083
0.0281468
0.034824
0.0445322
0.0555412
0.0649085
0.0753687
0.0836302
0.091328
0.0968652
0.100814
0.100355
0.098119
0.0932594
0.084266
0.0748338
0.0669275
0.0607384
0.0572715
0.0566129
0.0569807
0.0576253
0.0591446
0.0669224
0.0992614
0.135258
0.147415
0.144438
0.13582
0.127273
0.108457
0.0589538
0.0333251
0.0239394
0.0208149
0.0197056
0.0189963
0.0181328
0.0171094
0.0160097
0.0144956
0.0129005
0.0126074
0.0129056
0.0143649
0.0172651
0.0216323
0.0282136
0.0341309
0.0365491
0.0375853
0.0379367
0.037965
0.0372689
0.0355238
0.0337349
0.0317553
0.0289296
0.0261885
0.0235045
0.0208584
0.0189556
0.0178261
0.0169345
0.0159822
0.0150625
0.0143076
0.0138963
0.0137304
0.0137436
0.0138118
0.0139055
0.0142672
0.0149361
0.0159796
0.0171015
0.0183654
0.0198694
0.0209996
0.021565
0.0217436
0.0214586
0.0192457
0.0145625
0.0103612
0.00771671
0.00630868
0.00571241
0.00602311
0.00849054
0.0114293
0.012485
0.0122998
0.0111339
0.0108454
0.0120043
0.019812
0.0359488
0.0464573
0.0602069
0.0943707
0.181858
0.239319
0.246966
0.224163
0.165594
0.160143
0.171571
0.154248
0.0751895
0.0354269
0.0228483
0.0182144
0.0166388
0.0156896
0.0150503
0.0153703
0.0191467
0.0261946
0.0299685
0.0325565
0.034449
0.0358847
0.0390436
0.0451304
0.0520146
0.0577256
0.0630784
0.0689214
0.0741893
0.0788794
0.0816992
0.0840452
0.0860362
0.0887797
0.0922135
0.0941848
0.0935104
0.0859106
0.0760229
0.0691523
0.0638003
0.0605995
0.0591519
0.0588347
0.0589548
0.0601385
0.0647665
0.0816595
0.113422
0.135464
0.143196
0.138169
0.105129
0.0610856
0.0314334
0.0148202
0.00842597
0.00721832
0.0079136
0.0132374
0.0209153
0.0241887
0.0064133
0.00612627
0.00520329
0.00801763
0.00868683
0.00869631
0.00902396
0.00953249
0.0103094
0.0113563
0.0122684
0.0134152
0.0146709
0.0167416
0.0196344
0.0245643
0.0321202
0.0442146
0.0592571
0.0779891
0.0964602
0.113456
0.1281
0.141269
0.151516
0.159321
0.164714
0.167981
0.167332
0.164495
0.157915
0.143223
0.123518
0.105914
0.0902039
0.0786573
0.0741117
0.068099
0.0645157
0.0688978
0.0995704
0.135919
0.148359
0.149037
0.141462
0.127228
0.101453
0.0574492
0.0346652
0.0252427
0.0218705
0.0206353
0.0198487
0.0189856
0.017781
0.0163608
0.015267
0.0138361
0.0120262
0.0116999
0.0123462
0.0151344
0.0199172
0.0270314
0.0346791
0.0379201
0.0393808
0.0400294
0.0402391
0.0402119
0.0392685
0.0373907
0.0352676
0.0322725
0.0289615
0.0261906
0.0233462
0.019936
0.0170741
0.0149816
0.0131433
0.0113835
0.0097569
0.00828656
0.00709571
0.00619285
0.00547897
0.0049388
0.00459849
0.00461973
0.00522526
0.00648423
0.00799061
0.00974643
0.0127491
0.0162096
0.0191354
0.0211829
0.0222925
0.0227076
0.0221489
0.018174
0.0119618
0.0077611
0.00554078
0.00459001
0.00447434
0.0057456
0.00909677
0.0106926
0.0107322
0.0103318
0.0109884
0.0164185
0.0331211
0.044769
0.0567238
0.0850346
0.171766
0.240129
0.254136
0.243391
0.207635
0.193065
0.176188
0.118174
0.0501809
0.0260027
0.0180108
0.0154464
0.0150822
0.0149687
0.0148795
0.0163299
0.0238264
0.029587
0.0325528
0.034921
0.0367439
0.0384525
0.0429168
0.0493001
0.0556546
0.0624316
0.0700852
0.0778899
0.084013
0.0877765
0.0904295
0.0927655
0.0962826
0.10274
0.111294
0.115576
0.116051
0.109097
0.0922667
0.0782519
0.0677745
0.0609974
0.0581656
0.0575277
0.0575251
0.0577808
0.0595287
0.0658621
0.0864278
0.122777
0.145801
0.151515
0.144281
0.103598
0.0552142
0.0260801
0.0122012
0.00788931
0.007587
0.00967142
0.0154206
0.0186993
0.0106723
0.0124057
0.0138021
0.0166148
0.0172342
0.0153751
0.0116494
0.00895378
0.00920282
0.0103464
0.0120229
0.0145314
0.0186731
0.0246748
0.0347581
0.049725
0.0733121
0.0986684
0.120795
0.136152
0.148195
0.158449
0.166929
0.174067
0.179991
0.18472
0.188011
0.189558
0.189556
0.18827
0.184305
0.174975
0.155929
0.138982
0.116869
0.103618
0.0932086
0.0741101
0.0715453
0.0949014
0.127142
0.142085
0.146738
0.143261
0.126781
0.0946737
0.0563319
0.0358941
0.0265758
0.022897
0.0214393
0.0206313
0.0197653
0.0183447
0.0155851
0.013224
0.0123353
0.0115969
0.0108062
0.0107903
0.0124382
0.016296
0.0229418
0.0320321
0.0380046
0.0403705
0.0415824
0.0422213
0.0424961
0.0425359
0.0417499
0.0396327
0.0365838
0.032562
0.029439
0.0271794
0.0243966
0.019958
0.0168114
0.0144138
0.0123801
0.0105361
0.0088655
0.007356
0.00605197
0.00492064
0.00387456
0.0029546
0.00216802
0.00164307
0.00145218
0.0015819
0.00197121
0.00252893
0.00378977
0.00699367
0.0119482
0.0164836
0.0201004
0.0225101
0.0236237
0.0237144
0.0214337
0.0140765
0.00809505
0.00499346
0.00372332
0.00342826
0.00409665
0.00694143
0.0088534
0.00925591
0.00990907
0.0131847
0.0269244
0.0412486
0.0521767
0.0730446
0.140097
0.225088
0.24987
0.244147
0.220328
0.19794
0.160741
0.0775483
0.0350148
0.0206979
0.0154372
0.0141167
0.0142742
0.0145577
0.0148609
0.0186135
0.0273712
0.032036
0.0347625
0.0363331
0.0378999
0.0407492
0.0453994
0.051569
0.0592614
0.0686527
0.0790148
0.0854333
0.0905956
0.0935844
0.0963586
0.100154
0.107186
0.116713
0.122263
0.123857
0.123065
0.118072
0.103171
0.0839459
0.0700798
0.0611557
0.0562358
0.0549935
0.0550772
0.0555315
0.0568477
0.0607566
0.0705739
0.0982621
0.135413
0.154967
0.156889
0.143905
0.0913817
0.0449498
0.0199319
0.00997359
0.00781315
0.00838057
0.0117518
0.0148208
0.0155041
0.0238298
0.0284723
0.0284101
0.0280785
0.026027
0.0204513
0.0134921
0.0121076
0.0136222
0.0177393
0.024426
0.0342901
0.0496331
0.0763859
0.106892
0.127064
0.137981
0.147194
0.155636
0.163054
0.169521
0.175451
0.180571
0.184833
0.188036
0.189432
0.189794
0.189656
0.187806
0.182296
0.172009
0.15748
0.144331
0.131162
0.106706
0.0795939
0.0707033
0.0917643
0.116026
0.130846
0.138046
0.138004
0.121814
0.0881638
0.0565331
0.0370051
0.0276549
0.0236131
0.0220007
0.0212914
0.020421
0.0190586
0.0157846
0.0114581
0.0099607
0.00967139
0.00959797
0.00970151
0.0104057
0.0125723
0.0172645
0.0255865
0.036044
0.040445
0.0424237
0.043466
0.044116
0.0444761
0.0445704
0.0438712
0.0410489
0.0370201
0.0320343
0.0291011
0.0281745
0.0260679
0.0207131
0.0170947
0.0145434
0.0126209
0.0110872
0.0097836
0.00867521
0.00757942
0.00628849
0.00481796
0.00338832
0.00220742
0.00138462
0.000910748
0.000653764
0.00057824
0.000637402
0.000878311
0.00157576
0.00369948
0.00855067
0.0137635
0.0185603
0.0223472
0.0243199
0.0247169
0.0232467
0.0158115
0.00825557
0.00448168
0.00300075
0.00264081
0.00309623
0.0053777
0.00698497
0.00823173
0.0113014
0.0232274
0.0380019
0.0468398
0.0599404
0.0965466
0.184496
0.232201
0.234564
0.216798
0.184278
0.108354
0.050136
0.026615
0.0178169
0.0141684
0.013437
0.0137551
0.0142332
0.0150676
0.0205703
0.0297667
0.0341956
0.0363772
0.0382398
0.0400113
0.0432138
0.048183
0.0548768
0.0645506
0.0760429
0.0853604
0.0916052
0.0959664
0.0996451
0.104175
0.110718
0.117568
0.122239
0.124564
0.125021
0.123992
0.119688
0.105941
0.085398
0.070656
0.0599584
0.0535053
0.0514492
0.0514467
0.0518766
0.0530929
0.0567323
0.0643813
0.0794829
0.115581
0.149493
0.161916
0.159736
0.133238
0.0721038
0.0329842
0.0144211
0.00862634
0.00811439
0.00958353
0.0123002
0.0183913
0.0342663
0.0385814
0.0376157
0.0386625
0.0363492
0.0288823
0.0221211
0.0204766
0.02296
0.0302699
0.0428305
0.0660618
0.100421
0.124618
0.134282
0.139555
0.146183
0.154432
0.160573
0.16442
0.165911
0.166288
0.16658
0.167242
0.167302
0.167089
0.166603
0.165174
0.160571
0.152422
0.142134
0.130277
0.113334
0.0945387
0.0794728
0.0758694
0.0853324
0.107446
0.117955
0.124344
0.124018
0.111691
0.0869431
0.0576046
0.0390018
0.0291252
0.0244795
0.0224652
0.0215576
0.0205622
0.0191795
0.0165691
0.0124702
0.00908256
0.00814042
0.00806694
0.00834199
0.00902307
0.0102431
0.0126057
0.0179259
0.0286351
0.0381795
0.0418218
0.0435409
0.0444297
0.045299
0.0458384
0.0459855
0.0449435
0.0415414
0.0360415
0.0292742
0.0276633
0.028324
0.0274444
0.0229188
0.0182295
0.0157111
0.014835
0.0148832
0.0150726
0.0152509
0.014937
0.0134911
0.0110009
0.0079044
0.00490231
0.00263063
0.00129225
0.000654141
0.000401873
0.000299374
0.000286012
0.000386378
0.00081224
0.0022453
0.00560974
0.0105219
0.0165531
0.0218806
0.0247957
0.0253499
0.0240212
0.0162378
0.0078657
0.00386068
0.0023643
0.00203984
0.0024437
0.00413192
0.00553501
0.00793879
0.0161367
0.0333304
0.0419457
0.049525
0.0684978
0.119195
0.176866
0.199014
0.184435
0.126345
0.0665084
0.0350705
0.0220623
0.0162553
0.0135701
0.0130789
0.0133655
0.0139289
0.015064
0.0213986
0.0311479
0.0357994
0.0375872
0.0389241
0.0411103
0.0443271
0.0495286
0.0573085
0.0690927
0.0819066
0.0900658
0.0965289
0.100845
0.105555
0.112001
0.117479
0.120465
0.122959
0.124557
0.124408
0.123232
0.119078
0.105651
0.0842832
0.0687256
0.0571101
0.0498506
0.0472581
0.0471764
0.04761
0.0486745
0.0512022
0.0592587
0.0707903
0.0965096
0.136631
0.16195
0.166053
0.157062
0.108551
0.0520418
0.0222099
0.010646
0.00820925
0.00856436
0.0106248
0.0199005
0.040157
0.0437912
0.0534432
0.0561923
0.0462905
0.0315523
0.0254611
0.0257974
0.0322219
0.0482265
0.0785557
0.115126
0.128872
0.133917
0.136232
0.137444
0.137621
0.135059
0.127315
0.121319
0.119113
0.118189
0.117824
0.117622
0.116683
0.116005
0.114767
0.112306
0.108611
0.104305
0.0978304
0.0909788
0.0827108
0.0793249
0.0788266
0.0842045
0.0998258
0.106969
0.110702
0.110378
0.103104
0.0872641
0.0637333
0.0419071
0.0311187
0.0258313
0.0233909
0.0223531
0.0215399
0.0200864
0.0174156
0.013809
0.0105226
0.00808255
0.00731065
0.00726755
0.00764756
0.00862624
0.0101983
0.0128692
0.019337
0.0302367
0.0391343
0.0425789
0.0440432
0.0453156
0.046636
0.0473223
0.0474431
0.0451495
0.0405745
0.0328018
0.0276103
0.0263436
0.0270744
0.0279494
0.0256429
0.0202474
0.0184382
0.020064
0.0242139
0.0272796
0.0295207
0.0306798
0.0297346
0.026251
0.0206076
0.0136811
0.00773278
0.00364031
0.00149681
0.00060463
0.000299965
0.000207592
0.000189015
0.000239547
0.000504505
0.00126664
0.00283707
0.00647747
0.0139184
0.0213682
0.0251091
0.0256284
0.0239127
0.015006
0.00681502
0.00310392
0.00180437
0.00157906
0.00192976
0.00304917
0.00491767
0.0100656
0.0265545
0.0380753
0.0423135
0.0492571
0.0734096
0.108407
0.123972
0.112128
0.0740617
0.0434207
0.0269582
0.0194466
0.0153233
0.0132163
0.0128196
0.0130596
0.0136433
0.0149202
0.0210871
0.0319802
0.0365121
0.0386604
0.039895
0.0414805
0.0445745
0.0501486
0.0612147
0.0745538
0.0866628
0.0940156
0.0996481
0.10425
0.110104
0.116105
0.119524
0.120951
0.122651
0.12297
0.122166
0.119962
0.114094
0.0971012
0.0746233
0.0614185
0.0528911
0.0462615
0.0428853
0.0423785
0.0427476
0.0439681