/*--------------------------------*- C++ -*----------------------------------*\
  =========                 |
  \\      /  F ield         | OpenFOAM: The Open Source CFD Toolbox
   \\    /   O peration     | Website:  https://openfoam.org
    \\  /    A nd           | Version:  6
     \\/     M anipulation  |
\*---------------------------------------------------------------------------*/
FoamFile
{
    version     2.0;
    format      ascii;
    class       surfaceScalarField;
    location    "0.2";
    object      phi;
}
// * * * * * * * * * * * * * * * * * * * * * * * * * * * * * * * * * * * * * //

dimensions      [0 3 -1 0 0 0 0];

internalField   nonuniform List<scalar> 
24170
(
3.16855e-06
1.04675e-07
3.04617e-06
1.22381e-07
2.92626e-06
1.19915e-07
2.81637e-06
1.09885e-07
2.72318e-06
9.319e-08
2.63745e-06
8.57306e-08
2.54863e-06
8.88256e-08
2.46009e-06
8.85343e-08
2.38211e-06
7.79855e-08
2.31926e-06
6.28496e-08
2.26724e-06
5.20217e-08
2.21837e-06
4.88667e-08
2.16463e-06
5.37434e-08
2.10392e-06
6.07009e-08
2.03646e-06
6.74624e-08
1.9663e-06
7.01579e-08
1.89369e-06
7.26099e-08
8.42599e-08
1.80943e-06
3.41612e-06
8.19763e-08
3.44938e-06
8.9123e-08
3.4752e-06
9.41002e-08
3.4663e-06
1.18779e-07
3.44489e-06
1.14606e-07
3.43832e-06
9.22982e-08
3.44828e-06
7.88585e-08
3.46158e-06
7.52403e-08
3.46793e-06
7.16362e-08
3.46484e-06
6.59335e-08
3.45413e-06
6.27309e-08
3.4388e-06
6.42032e-08
3.42096e-06
7.15779e-08
3.40136e-06
8.03022e-08
3.38056e-06
8.82646e-08
3.3571e-06
9.3617e-08
3.33051e-06
9.92036e-08
1.12905e-07
3.30186e-06
3.72751e-06
1.27533e-07
3.71448e-06
1.02153e-07
3.69077e-06
1.17815e-07
3.6694e-06
1.4015e-07
3.65491e-06
1.29092e-07
3.6467e-06
1.00511e-07
3.64476e-06
8.08e-08
3.64884e-06
7.11567e-08
3.65765e-06
6.28276e-08
3.66945e-06
5.41297e-08
3.68226e-06
4.99229e-08
3.69418e-06
5.22821e-08
3.70466e-06
6.1104e-08
3.7134e-06
7.15569e-08
3.72096e-06
8.07045e-08
3.72724e-06
8.73439e-08
3.7334e-06
9.30362e-08
1.03845e-07
3.74246e-06
3.92827e-06
-2.20634e-08
3.93134e-06
9.90747e-08
3.92777e-06
1.21392e-07
3.95726e-06
1.10652e-07
3.98421e-06
1.02142e-07
3.98411e-06
1.00615e-07
3.96173e-06
1.03183e-07
3.93433e-06
9.85538e-08
3.91514e-06
8.20126e-08
3.90855e-06
6.07189e-08
3.913e-06
4.54755e-08
3.92453e-06
4.07565e-08
3.93977e-06
4.58649e-08
3.95563e-06
5.56952e-08
3.97037e-06
6.5966e-08
3.98317e-06
7.45366e-08
3.99426e-06
8.19529e-08
9.1637e-08
4.00647e-06
4.28822e-06
-4.59968e-09
4.2637e-06
1.23596e-07
4.25773e-06
1.27361e-07
4.26357e-06
1.04812e-07
4.26359e-06
1.02123e-07
4.25234e-06
1.11859e-07
4.24004e-06
1.15486e-07
4.23474e-06
1.03854e-07
4.23601e-06
8.07442e-08
4.23995e-06
5.67767e-08
4.24472e-06
4.07096e-08
4.25116e-06
3.43111e-08
4.26154e-06
3.54865e-08
4.27638e-06
4.08545e-08
4.29441e-06
4.7937e-08
4.31309e-06
5.58566e-08
4.33006e-06
6.49849e-08
7.56783e-08
4.34602e-06
4.50532e-06
8.75641e-09
4.52173e-06
1.07194e-07
4.51221e-06
1.3688e-07
4.50656e-06
1.10456e-07
4.51256e-06
9.61257e-08
4.51967e-06
1.04749e-07
4.52046e-06
1.14694e-07
4.51739e-06
1.06923e-07
4.51731e-06
8.08248e-08
4.52476e-06
4.93249e-08
4.53998e-06
2.54884e-08
4.55963e-06
1.46661e-08
4.57943e-06
1.56818e-08
4.59535e-06
2.49336e-08
4.60517e-06
3.81229e-08
4.60852e-06
5.25092e-08
4.60759e-06
6.59063e-08
7.82912e-08
4.60498e-06
4.89082e-06
-5.79515e-08
4.92125e-06
7.67636e-08
4.90934e-06
1.48796e-07
4.89384e-06
1.2595e-07
4.89279e-06
9.7176e-08
4.90817e-06
8.93678e-08
4.93059e-06
9.22791e-08
4.94316e-06
9.43548e-08
4.93348e-06
9.05074e-08
4.90325e-06
7.9548e-08
4.86631e-06
6.2431e-08
4.83759e-06
4.33871e-08
4.82488e-06
2.83919e-08
4.82733e-06
2.24796e-08
4.83914e-06
2.63135e-08
4.85449e-06
3.71589e-08
4.86882e-06
5.15764e-08
6.53054e-08
4.88181e-06
5.29787e-06
-5.04864e-08
5.23985e-06
1.34787e-07
5.19506e-06
1.93583e-07
5.15954e-06
1.61473e-07
5.13506e-06
1.21658e-07
5.12609e-06
9.83363e-08
5.13267e-06
8.56931e-08
5.15023e-06
7.67958e-08
5.17255e-06
6.81866e-08
5.1952e-06
5.68977e-08
5.21644e-06
4.11914e-08
5.23599e-06
2.38342e-08
5.25379e-06
1.06011e-08
5.26945e-06
6.82004e-09
5.28171e-06
1.4053e-08
5.2894e-06
2.94617e-08
5.29163e-06
4.9349e-08
6.80261e-08
5.28891e-06
5.49541e-06
-9.65021e-08
5.47631e-06
1.5389e-07
5.48368e-06
1.86209e-07
5.51446e-06
1.3069e-07
5.54577e-06
9.03517e-08
5.56205e-06
8.20516e-08
5.56012e-06
8.76268e-08
5.55126e-06
8.56589e-08
5.5512e-06
6.82409e-08
5.56733e-06
4.07667e-08
5.5951e-06
1.34226e-08
5.62398e-06
-5.04034e-09
5.64475e-06
-1.01713e-08
5.65389e-06
-2.32209e-09
5.65338e-06
1.45667e-08
5.64779e-06
3.5054e-08
5.64255e-06
5.45876e-08
7.03398e-08
5.64023e-06
5.98951e-06
7.7948e-08
5.94699e-06
1.96409e-07
5.94252e-06
1.90677e-07
5.91507e-06
1.58146e-07
5.89137e-06
1.14047e-07
5.89556e-06
7.78605e-08
5.92247e-06
6.07171e-08
5.95348e-06
5.46512e-08
5.97426e-06
4.74632e-08
5.98041e-06
3.46135e-08
5.97507e-06
1.87673e-08
5.9645e-06
5.53042e-09
5.95491e-06
-5.86504e-10
5.95047e-06
2.11591e-09
5.95279e-06
1.22524e-08
5.96151e-06
2.63349e-08
5.97491e-06
4.11806e-08
5.32776e-08
5.99198e-06
6.45027e-06
-4.05554e-08
6.45535e-06
1.91337e-07
6.44129e-06
2.04739e-07
6.40981e-06
1.89622e-07
6.37752e-06
1.46332e-07
6.36734e-06
8.80481e-08
6.38552e-06
4.25338e-08
6.42021e-06
1.99579e-08
6.45468e-06
1.29935e-08
6.47817e-06
1.11314e-08
6.4878e-06
9.12973e-09
6.48576e-06
7.57693e-09
6.47668e-06
8.48691e-09
6.46567e-06
1.31278e-08
6.45654e-06
2.13838e-08
6.45118e-06
3.16938e-08
6.4498e-06
4.25608e-08
5.24733e-08
6.4506e-06
5.74255e-06
6.79105e-08
5.81684e-06
1.17046e-07
5.83419e-06
1.87383e-07
5.80712e-06
2.16696e-07
5.77785e-06
1.75605e-07
5.75694e-06
1.08953e-07
5.74528e-06
5.41941e-08
5.74589e-06
1.93479e-08
5.76097e-06
-2.0888e-09
5.78663e-06
-1.45287e-08
5.81262e-06
-1.68523e-08
5.82726e-06
-7.06694e-09
5.82501e-06
1.07411e-08
5.80823e-06
2.99048e-08
5.78567e-06
4.39389e-08
5.7659e-06
5.14651e-08
5.75446e-06
5.40084e-08
5.24261e-08
5.7545e-06
7.12364e-06
1.64662e-07
7.00556e-06
2.35129e-07
6.95335e-06
2.39594e-07
6.99238e-06
1.77665e-07
7.05164e-06
1.16345e-07
7.08358e-06
7.70115e-08
7.08905e-06
4.87264e-08
7.0883e-06
2.01017e-08
7.09549e-06
-9.28104e-09
7.11254e-06
-3.158e-08
7.13362e-06
-3.79286e-08
7.15054e-06
-2.39893e-08
7.15625e-06
5.03435e-09
7.14744e-06
3.87104e-08
7.12472e-06
6.66551e-08
7.09146e-06
8.47244e-08
7.05365e-06
9.1821e-08
9.17872e-08
7.01429e-06
8.66645e-06
1.36252e-07
8.64154e-06
2.60043e-07
8.6446e-06
2.36537e-07
8.65479e-06
1.67471e-07
8.65337e-06
1.17765e-07
8.66818e-06
6.2201e-08
8.72084e-06
-3.92966e-09
8.79071e-06
-4.97712e-08
8.8315e-06
-5.00758e-08
8.80834e-06
-8.41898e-09
8.72072e-06
4.96916e-08
8.59864e-06
9.80896e-08
8.48061e-06
1.23067e-07
8.39496e-06
1.24361e-07
8.35243e-06
1.09182e-07
8.35067e-06
8.64866e-08
8.38026e-06
6.22318e-08
4.04781e-08
8.43157e-06
1.02721e-05
3.42499e-07
1.01188e-05
4.13353e-07
1.00815e-05
2.73865e-07
1.01141e-05
1.34825e-07
1.01682e-05
6.36945e-08
1.02158e-05
1.45652e-08
1.02557e-05
-4.38281e-08
1.02966e-05
-9.05998e-08
1.03431e-05
-9.66129e-08
1.03931e-05
-5.84213e-08
1.04406e-05
2.19838e-09
1.04806e-05
5.80848e-08
1.05114e-05
9.22606e-08
1.05332e-05
1.02578e-07
1.0546e-05
9.63917e-08
1.05503e-05
8.21121e-08
1.05464e-05
6.61897e-08
5.11874e-08
1.05357e-05
1.28284e-05
4.5967e-07
1.28062e-05
4.35555e-07
1.28173e-05
2.62846e-07
1.28154e-05
1.36726e-07
1.28212e-05
5.7881e-08
1.28239e-05
1.1814e-08
1.2802e-05
-2.18913e-08
1.27611e-05
-4.97668e-08
1.27261e-05
-6.15397e-08
1.27144e-05
-4.67275e-08
1.27254e-05
-8.77389e-09
1.27468e-05
3.66317e-08
1.27663e-05
7.27522e-08
1.27779e-05
9.10245e-08
1.27819e-05
9.23743e-08
1.27814e-05
8.26427e-08
1.27798e-05
6.77954e-08
5.23855e-08
1.27786e-05
1.54223e-05
1.54138e-07
1.54376e-05
4.20211e-07
1.5469e-05
2.31461e-07
1.55434e-05
6.23333e-08
1.55995e-05
1.74844e-09
1.56258e-05
-1.44524e-08
1.56264e-05
-2.24563e-08
1.5604e-05
-2.7369e-08
1.55657e-05
-2.33011e-08
1.55246e-05
-5.63568e-09
1.54933e-05
2.2538e-08
1.54785e-05
5.14539e-08
1.54801e-05
7.11407e-08
1.54947e-05
7.6466e-08
1.55183e-05
6.87824e-08
1.55483e-05
5.26438e-08
1.55826e-05
3.34814e-08
1.42566e-08
1.56207e-05
1.84901e-05
2.1608e-07
1.87156e-05
1.94762e-07
1.88577e-05
8.93309e-08
1.88618e-05
5.82073e-08
1.87973e-05
6.63202e-08
1.87111e-05
7.1669e-08
1.86262e-05
6.24765e-08
1.85577e-05
4.11197e-08
1.85207e-05
1.36856e-08
1.85295e-05
-1.44355e-08
1.85909e-05
-3.87929e-08
1.86978e-05
-5.54771e-08
1.88311e-05
-6.21762e-08
1.89663e-05
-5.87819e-08
1.90821e-05
-4.69821e-08
1.9166e-05
-3.12825e-08
1.92145e-05
-1.49706e-08
-4.27605e-09
1.9233e-05
2.23197e-05
-4.97727e-08
2.25769e-05
-6.25183e-08
2.28278e-05
-1.61485e-07
2.30239e-05
-1.37888e-07
2.31429e-05
-5.27017e-08
2.31852e-05
2.93756e-08
2.31611e-05
8.65839e-08
2.30907e-05
1.11438e-07
2.30036e-05
1.00829e-07
2.29295e-05
5.96605e-08
2.28889e-05
1.81717e-09
2.28872e-05
-5.37625e-08
2.29162e-05
-9.12241e-08
2.29612e-05
-1.03753e-07
2.30079e-05
-9.36526e-08
2.30477e-05
-7.11319e-08
2.30779e-05
-4.51904e-08
-2.46587e-08
2.30983e-05
1.62483e-05
-1.51562e-07
1.63665e-05
-1.80696e-07
1.63798e-05
-1.74863e-07
1.64125e-05
-1.70512e-07
1.64875e-05
-1.27735e-07
1.65821e-05
-6.52383e-08
1.66737e-05
-4.99446e-09
1.67405e-05
4.4656e-08
1.6767e-05
7.42933e-08
1.67546e-05
7.20583e-08
1.67215e-05
3.49004e-08
1.66922e-05
-2.44472e-08
1.66852e-05
-8.4174e-08
1.67066e-05
-1.25194e-07
1.67501e-05
-1.37127e-07
1.68021e-05
-1.23152e-07
1.68478e-05
-9.09388e-08
-5.43124e-08
1.68775e-05
1.45946e-05
-1.33031e-07
1.45055e-05
-9.15597e-08
1.44948e-05
-1.64198e-07
1.45474e-05
-2.23039e-07
1.46018e-05
-1.8215e-07
1.46078e-05
-7.12398e-08
1.45621e-05
4.06782e-08
1.45055e-05
1.01274e-07
1.44782e-05
1.01614e-07
1.4488e-05
6.22202e-08
1.45157e-05
7.1547e-09
1.45383e-05
-4.70215e-08
1.45449e-05
-9.07328e-08
1.45378e-05
-1.18099e-07
1.45262e-05
-1.25535e-07
1.45184e-05
-1.1531e-07
1.45195e-05
-9.20971e-08
-6.39052e-08
1.45291e-05
1.30111e-05
5.58907e-08
1.28849e-05
3.45893e-08
1.27861e-05
-6.5361e-08
1.26972e-05
-1.34159e-07
1.26479e-05
-1.32809e-07
1.26615e-05
-8.48378e-08
1.27276e-05
-2.54562e-08
1.28106e-05
1.82669e-08
1.28763e-05
3.59317e-08
1.29069e-05
3.16708e-08
1.29003e-05
1.37078e-08
1.28645e-05
-1.12103e-08
1.28111e-05
-3.73763e-08
1.27523e-05
-5.93006e-08
1.26988e-05
-7.2044e-08
1.26588e-05
-7.52365e-08
1.26367e-05
-7.00802e-08
-6.11907e-08
1.2634e-05
1.12559e-05
3.09551e-08
1.13423e-05
-5.18532e-08
1.12411e-05
3.5835e-08
1.10711e-05
3.59365e-08
1.09827e-05
-4.44722e-08
1.10103e-05
-1.1244e-07
1.1098e-05
-1.13131e-07
1.11758e-05
-5.9514e-08
1.12113e-05
4.24536e-10
1.12137e-05
2.92938e-08
1.12087e-05
1.86394e-08
1.12156e-05
-1.81176e-08
1.12385e-05
-6.02222e-08
1.12702e-05
-9.10151e-08
1.13001e-05
-1.01933e-07
1.13197e-05
-9.48824e-08
1.1325e-05
-7.53327e-08
-5.22686e-08
1.13161e-05
9.58035e-06
5.67185e-09
9.60557e-06
-7.70726e-08
9.65049e-06
-9.08763e-09
9.67663e-06
9.79858e-09
9.66692e-06
-3.4757e-08
9.63679e-06
-8.2315e-08
9.61489e-06
-9.12252e-08
9.61622e-06
-6.08515e-08
9.63654e-06
-1.98958e-08
9.66189e-06
3.94803e-09
9.67821e-06
2.32074e-09
9.67756e-06
-1.74651e-08
9.66085e-06
-4.35195e-08
9.63619e-06
-6.63518e-08
9.6144e-06
-8.01479e-08
9.60319e-06
-8.36673e-08
9.60607e-06
-7.8216e-08
-6.7863e-08
9.62167e-06
8.39918e-06
-6.04504e-08
8.36518e-06
-4.30741e-08
8.33917e-06
1.69216e-08
8.32892e-06
2.00453e-08
8.33097e-06
-3.68054e-08
8.33596e-06
-8.73085e-08
8.34093e-06
-9.61899e-08
8.35276e-06
-7.26803e-08
8.37393e-06
-4.10655e-08
8.39597e-06
-1.80974e-08
8.40725e-06
-8.95604e-09
8.40275e-06
-1.29609e-08
8.38642e-06
-2.71892e-08
8.36737e-06
-4.73113e-08
8.35419e-06
-6.69678e-08
8.35132e-06
-8.07914e-08
8.35931e-06
-8.62105e-08
-8.13717e-08
8.37282e-06
7.20688e-06
-1.5233e-07
7.25513e-06
-9.13237e-08
7.31878e-06
-4.67327e-08
7.37576e-06
-3.69281e-08
7.3935e-06
-5.4546e-08
7.38003e-06
-7.3838e-08
7.35818e-06
-7.43433e-08
7.3381e-06
-5.26002e-08
7.31815e-06
-2.11126e-08
7.2967e-06
3.35113e-09
7.27752e-06
1.02267e-08
7.26658e-06
-2.0258e-09
7.26719e-06
-2.77976e-08
7.27862e-06
-5.87423e-08
7.29799e-06
-8.63349e-08
7.32181e-06
-1.04619e-07
7.34709e-06
-1.1149e-07
-1.07582e-07
7.3733e-06
6.38909e-06
-6.63774e-08
6.33852e-06
-4.0762e-08
6.2959e-06
-4.10891e-09
6.28048e-06
-2.15039e-08
6.29108e-06
-6.51517e-08
6.31459e-06
-9.73418e-08
6.34155e-06
-1.01308e-07
6.37007e-06
-8.11197e-08
6.39926e-06
-5.02992e-08
6.42547e-06
-2.28618e-08
6.44381e-06
-8.11479e-09
6.45033e-06
-8.54406e-09
6.4433e-06
-2.07644e-08
6.4238e-06
-3.92488e-08
6.39592e-06
-5.84524e-08
6.36522e-06
-7.39161e-08
6.33752e-06
-8.37896e-08
-8.52587e-08
6.31519e-06
5.44638e-06
-5.65077e-08
5.41754e-06
-1.19175e-08
5.43985e-06
-2.64207e-08
5.50047e-06
-8.2123e-08
5.55565e-06
-1.20331e-07
5.57895e-06
-1.20645e-07
5.56951e-06
-9.18666e-08
5.54219e-06
-5.3796e-08
5.51475e-06
-2.28627e-08
5.49887e-06
-6.97999e-09
5.49705e-06
-6.29247e-09
5.50521e-06
-1.67079e-08
5.51737e-06
-3.29266e-08
5.52885e-06
-5.07319e-08
5.53729e-06
-6.68919e-08
5.54237e-06
-7.89928e-08
5.54438e-06
-8.57986e-08
-8.61108e-08
5.54523e-06
4.76614e-06
-1.00363e-07
4.86473e-06
-1.10504e-07
4.92942e-06
-9.11131e-08
4.94012e-06
-9.28253e-08
4.91659e-06
-9.67959e-08
4.88122e-06
-8.52804e-08
4.85333e-06
-6.39724e-08
4.84548e-06
-4.59462e-08
4.85998e-06
-3.73651e-08
4.88947e-06
-3.64713e-08
4.92181e-06
-3.86287e-08
4.94598e-06
-4.08795e-08
4.95615e-06
-4.30972e-08
4.95214e-06
-4.67205e-08
4.93746e-06
-5.22086e-08
4.91664e-06
-5.8174e-08
4.89324e-06
-6.24002e-08
-6.32002e-08
4.87033e-06
4.1819e-06
4.0714e-06
3.98028e-06
3.88746e-06
3.79066e-06
3.70538e-06
3.64141e-06
3.59546e-06
3.5581e-06
3.52163e-06
3.483e-06
3.44212e-06
3.39902e-06
3.3523e-06
3.30009e-06
3.24192e-06
3.17952e-06
3.11632e-06
4.41583e-08
-4.41583e-08
9.4134e-08
-4.99757e-08
1.14593e-07
-2.04589e-08
9.34248e-08
2.11682e-08
3.97933e-08
5.36315e-08
-5.2997e-08
9.27903e-08
-1.76358e-07
1.23361e-07
-2.76994e-07
1.00636e-07
-3.49357e-07
7.23632e-08
-3.97645e-07
4.82877e-08
-4.20933e-07
2.32885e-08
-4.23161e-07
2.22791e-09
-4.08076e-07
-1.50852e-08
-3.79096e-07
-2.89799e-08
-3.38101e-07
-4.09953e-08
-2.85882e-07
-5.22191e-08
-2.2309e-07
-6.27912e-08
-1.51216e-07
-7.18748e-08
-7.15856e-08
-7.963e-08
1.51977e-08
-8.67834e-08
1.08682e-07
-9.34844e-08
2.07834e-07
-9.91522e-08
3.11837e-07
-1.04003e-07
4.20938e-07
-1.09101e-07
5.36264e-07
-1.15326e-07
6.58684e-07
-1.2242e-07
7.87574e-07
-1.2889e-07
9.20619e-07
-1.33044e-07
1.0535e-06
-1.32877e-07
1.17983e-06
-1.26339e-07
1.2934e-06
-1.13561e-07
1.39032e-06
-9.69277e-08
1.46944e-06
-7.91137e-08
1.5317e-06
-6.22652e-08
1.57909e-06
-4.73908e-08
1.61482e-06
-3.57242e-08
1.64661e-06
-3.17937e-08
1.68475e-06
-3.81347e-08
1.73752e-06
-5.2774e-08
1.80701e-06
-6.94865e-08
1.8812e-06
-7.41941e-08
1.93721e-06
-5.60126e-08
1.9396e-06
-2.39031e-09
1.82829e-06
1.11311e-07
1.57799e-06
2.50301e-07
1.29204e-06
2.85948e-07
1.11352e-06
1.78519e-07
9.90813e-07
1.22711e-07
7.26397e-07
2.64416e-07
4.51061e-07
2.75336e-07
5.93309e-07
-1.42248e-07
1.02365e-06
-4.30342e-07
1.20956e-06
-1.85914e-07
9.3851e-07
2.71054e-07
1.24586e-07
8.13923e-07
-8.4883e-07
9.73416e-07
-1.77811e-06
9.29284e-07
-2.64456e-06
8.66448e-07
-3.45939e-06
8.14827e-07
-4.22853e-06
7.69142e-07
-4.96368e-06
7.35149e-07
-5.67507e-06
7.11392e-07
-6.3718e-06
6.96724e-07
-7.05663e-06
6.84831e-07
-7.72562e-06
6.68991e-07
-8.36823e-06
6.42611e-07
-8.9697e-06
6.01475e-07
-9.51358e-06
5.43872e-07
-9.98395e-06
4.70372e-07
-1.03672e-05
3.83257e-07
-1.06533e-05
2.86053e-07
-1.08364e-05
1.83161e-07
-1.09163e-05
7.98947e-08
-1.08994e-05
-1.69607e-08
-1.07978e-05
-1.01543e-07
-1.06229e-05
-1.74945e-07
-1.03839e-05
-2.38966e-07
-1.00898e-05
-2.94112e-07
-9.74776e-06
-3.42022e-07
-9.36422e-06
-3.83548e-07
-8.94403e-06
-4.20192e-07
-8.49109e-06
-4.52939e-07
-8.00856e-06
-4.82527e-07
-7.49935e-06
-5.09211e-07
-6.96649e-06
-5.32854e-07
-6.41355e-06
-5.52946e-07
-5.84471e-06
-5.68839e-07
-5.26484e-06
-5.7987e-07
-4.6793e-06
-5.85536e-07
-4.09381e-06
-5.85489e-07
-3.5142e-06
-5.7961e-07
-2.94611e-06
-5.68096e-07
-2.39431e-06
-5.51799e-07
-1.86211e-06
-5.32204e-07
-1.35133e-06
-5.10771e-07
-8.63e-07
-4.88334e-07
-3.98341e-07
-4.6466e-07
3.90995e-08
-4.3744e-07
4.42425e-07
-4.03325e-07
8.02862e-07
-3.60438e-07
1.1135e-06
-3.10634e-07
1.37453e-06
-2.61034e-07
1.59604e-06
-2.21512e-07
1.79525e-06
-1.99206e-07
1.98903e-06
-1.93784e-07
2.18588e-06
-1.96846e-07
2.38322e-06
-1.97337e-07
2.57331e-06
-1.90094e-07
2.75268e-06
-1.79372e-07
2.92667e-06
-1.73991e-07
3.11182e-06
-1.85152e-07
3.33506e-06
-2.23235e-07
3.60284e-06
-2.67775e-07
3.87435e-06
-2.71519e-07
4.13673e-06
-2.62379e-07
4.44085e-06
-3.04115e-07
4.72831e-06
-2.87462e-07
4.87114e-06
-1.42832e-07
4.91212e-06
-4.09733e-08
4.7506e-06
1.61519e-07
4.07667e-06
6.7393e-07
3.06135e-06
1.01532e-06
2.21414e-06
8.47207e-07
1.8891e-06
3.25039e-07
2.17967e-06
-2.9057e-07
2.83318e-06
-6.53513e-07
3.45887e-06
-6.2569e-07
3.84469e-06
-3.85818e-07
3.99052e-06
-1.45831e-07
3.95704e-06
3.34785e-08
3.7709e-06
1.86148e-07
3.42664e-06
3.4426e-07
2.91632e-06
5.10312e-07
2.2156e-06
7.00721e-07
1.29671e-06
9.18894e-07
2.20834e-07
1.07587e-06
-8.80598e-07
1.10143e-06
-1.94154e-06
1.06094e-06
-2.96554e-06
1.024e-06
-3.96767e-06
1.00213e-06
-4.95523e-06
9.87567e-07
-5.92448e-06
9.69249e-07
-6.86204e-06
9.37558e-07
-7.74757e-06
8.85529e-07
-8.5569e-06
8.09334e-07
-9.26483e-06
7.07931e-07
-9.84782e-06
5.82984e-07
-1.02857e-05
4.37887e-07
-1.0561e-05
2.75308e-07
-1.06607e-05
9.96807e-08
-1.05815e-05
-7.91549e-08
-1.03205e-05
-2.61072e-07
-9.87122e-06
-4.49244e-07
-9.23264e-06
-6.38585e-07
-8.41175e-06
-8.20884e-07
-7.42865e-06
-9.83101e-07
-6.31642e-06
-1.11223e-06
-5.11796e-06
-1.19846e-06
-3.88016e-06
-1.2378e-06
-2.64745e-06
-1.23271e-06
-1.45721e-06
-1.19024e-06
-3.38136e-07
-1.11907e-06
6.8954e-07
-1.02768e-06
1.61484e-06
-9.25298e-07
2.43133e-06
-8.16488e-07
3.13506e-06
-7.03733e-07
3.72796e-06
-5.92902e-07
4.21522e-06
-4.8726e-07
4.58803e-06
-3.72809e-07
4.79359e-06
-2.05561e-07
4.76147e-06
3.21255e-08
4.4946e-06
2.66869e-07
4.09923e-06
3.95365e-07
3.73092e-06
3.6831e-07
3.48112e-06
2.49805e-07
3.34028e-06
1.40836e-07
3.18427e-06
1.5601e-07
2.88347e-06
3.00798e-07
2.51245e-06
3.71025e-07
2.34411e-07
2.27804e-06
3.03073e-08
-7.44656e-08
3.40523e-08
-5.37206e-08
2.94138e-09
1.0652e-08
-6.1467e-08
8.55765e-08
-1.47273e-07
1.39438e-07
-2.22399e-07
1.67916e-07
-2.68674e-07
1.69637e-07
-3.06162e-07
1.38123e-07
-3.38492e-07
1.04694e-07
-3.6141e-07
7.12056e-08
-3.7575e-07
3.7629e-08
-3.80012e-07
6.48942e-09
-3.71559e-07
-2.35381e-08
-3.47875e-07
-5.26637e-08
-3.08183e-07
-8.06874e-08
-2.53443e-07
-1.06959e-07
-1.85694e-07
-1.3054e-07
-1.07901e-07
-1.49668e-07
-2.3706e-08
-1.63825e-07
6.37105e-08
-1.742e-07
1.52427e-07
-1.82201e-07
2.4173e-07
-1.88455e-07
3.31834e-07
-1.94107e-07
4.23811e-07
-2.01078e-07
5.19689e-07
-2.11204e-07
6.21938e-07
-2.24669e-07
7.32174e-07
-2.39126e-07
8.50245e-07
-2.51115e-07
9.7403e-07
-2.56662e-07
1.09853e-06
-2.50844e-07
1.21577e-06
-2.30797e-07
1.31708e-06
-1.98241e-07
1.39511e-06
-1.57139e-07
1.44533e-06
-1.12483e-07
1.46963e-06
-7.16974e-08
1.48101e-06
-4.71038e-08
1.4977e-06
-4.84842e-08
1.53397e-06
-7.44028e-08
1.60054e-06
-1.19337e-07
1.70256e-06
-1.71516e-07
1.82451e-06
-1.96139e-07
1.93161e-06
-1.63117e-07
2.01611e-06
-8.68853e-08
2.08876e-06
3.86593e-08
2.12638e-06
2.12679e-07
2.05781e-06
3.54521e-07
1.7962e-06
4.40128e-07
1.39465e-06
5.24266e-07
1.22282e-06
4.36241e-07
1.55011e-06
-5.19493e-08
1.62531e-06
-2.17456e-07
7.88914e-07
4.06059e-07
-6.72691e-07
1.27569e-06
-1.99344e-06
1.5918e-06
-2.91015e-06
1.73064e-06
-3.65455e-06
1.71782e-06
-4.36369e-06
1.63842e-06
-5.03462e-06
1.53738e-06
-5.66657e-06
1.44678e-06
-6.26919e-06
1.37176e-06
-6.85187e-06
1.31783e-06
-7.42129e-06
1.28081e-06
-7.9787e-06
1.25414e-06
-8.5214e-06
1.22753e-06
-9.0433e-06
1.19089e-06
-9.53632e-06
1.13563e-06
-9.99071e-06
1.05587e-06
-1.03952e-05
9.48333e-07
-1.07377e-05
8.1294e-07
-1.10078e-05
6.53325e-07
-1.11981e-05
4.76357e-07
-1.13059e-05
2.90978e-07
-1.13327e-05
1.06711e-07
-1.1281e-05
-6.86703e-08
-1.11518e-05
-2.30776e-07
-1.09511e-05
-3.75614e-07
-1.06888e-05
-5.01288e-07
-1.03735e-05
-6.09425e-07
-1.00132e-05
-7.02281e-07
-9.61389e-06
-7.82902e-07
-9.18002e-06
-8.54055e-07
-8.71485e-06
-9.18108e-07
-8.22083e-06
-9.76547e-07
-7.70017e-06
-1.02988e-06
-7.15535e-06
-1.07767e-06
-6.58954e-06
-1.11876e-06
-6.00681e-06
-1.15157e-06
-5.41222e-06
-1.17445e-06
-4.81162e-06
-1.18614e-06
-4.21113e-06
-1.18599e-06
-3.61671e-06
-1.17402e-06
-3.03392e-06
-1.15088e-06
-2.46789e-06
-1.11784e-06
-1.92325e-06
-1.07684e-06
-1.40342e-06
-1.0306e-06
-9.09944e-07
-9.81811e-07
-4.42165e-07
-9.32438e-07
2.836e-09
-8.82442e-07
4.27907e-07
-8.28396e-07
8.32767e-07
-7.65298e-07
1.21306e-06
-6.90928e-07
1.56225e-06
-6.10224e-07
1.87657e-06
-5.35832e-07
2.15971e-06
-4.82348e-07
2.42174e-06
-4.55814e-07
2.67085e-06
-4.45957e-07
2.90533e-06
-4.31815e-07
3.11447e-06
-3.99237e-07
3.28994e-06
-3.5484e-07
3.43927e-06
-3.2332e-07
3.58437e-06
-3.30251e-07
3.74963e-06
-3.885e-07
3.96758e-06
-4.85717e-07
4.26099e-06
-5.64934e-07
4.57933e-06
-5.80714e-07
4.86369e-06
-5.8848e-07
5.17188e-06
-5.95656e-07
5.49768e-06
-4.68629e-07
5.69643e-06
-2.3972e-07
5.8108e-06
4.71482e-08
5.89009e-06
5.94634e-07
5.64331e-06
1.26211e-06
4.9369e-06
1.55361e-06
4.16387e-06
1.09807e-06
3.78203e-06
9.12702e-08
3.82055e-06
-6.92035e-07
3.97056e-06
-7.75696e-07
3.96702e-06
-3.82284e-07
3.74021e-06
8.0987e-08
3.33599e-06
4.37699e-07
2.79568e-06
7.26456e-07
2.09641e-06
1.04353e-06
1.18405e-06
1.42266e-06
8.19851e-08
1.80279e-06
-1.06427e-06
2.06515e-06
-2.12068e-06
2.13229e-06
-3.07507e-06
2.05582e-06
-3.96206e-06
1.94793e-06
-4.80144e-06
1.86338e-06
-5.60626e-06
1.80694e-06
-6.38404e-06
1.76535e-06
-7.13546e-06
1.72067e-06
-7.8544e-06
1.65651e-06
-8.52883e-06
1.55995e-06
-9.14213e-06
1.42263e-06
-9.67532e-06
1.24113e-06
-1.01094e-05
1.01703e-06
-1.04272e-05
7.55676e-07
-1.06158e-05
4.63947e-07
-1.0664e-05
1.47897e-07
-1.05526e-05
-1.9057e-07
-1.02643e-05
-5.49413e-07
-9.7903e-06
-9.23202e-07
-9.1269e-06
-1.30198e-06
-8.28114e-06
-1.66665e-06
-7.27318e-06
-1.99105e-06
-6.13725e-06
-2.24817e-06
-4.9177e-06
-2.41801e-06
-3.66241e-06
-2.49309e-06
-2.41609e-06
-2.47903e-06
-1.21559e-06
-2.39075e-06
-8.82028e-08
-2.24646e-06
9.48925e-07
-2.0648e-06
1.88725e-06
-1.86362e-06
2.7241e-06
-1.65334e-06
3.45987e-06
-1.43951e-06
4.09435e-06
-1.22738e-06
4.62132e-06
-1.01423e-06
5.03578e-06
-7.87268e-07
5.36548e-06
-5.35263e-07
5.63349e-06
-2.35878e-07
5.7948e-06
1.0555e-07
5.78412e-06
4.06046e-07
5.59251e-06
5.59927e-07
5.2602e-06
5.82109e-07
4.86288e-06
5.38164e-07
4.50896e-06
5.0993e-07
4.22596e-06
5.83791e-07
3.92393e-06
6.73053e-07
5.64851e-07
3.59349e-06
-1.64809e-08
-5.79847e-08
-5.25494e-08
-1.76521e-08
-9.20227e-08
5.01253e-08
-1.22655e-07
1.16209e-07
-1.46504e-07
1.63287e-07
-1.60464e-07
1.81876e-07
-1.64554e-07
1.73727e-07
-1.72112e-07
1.45681e-07
-1.82872e-07
1.15453e-07
-1.93667e-07
8.20012e-08
-2.01077e-07
4.50388e-08
-2.00597e-07
6.00905e-09
-1.8838e-07
-3.57551e-08
-1.61134e-07
-7.99092e-08
-1.16972e-07
-1.24849e-07
-5.58998e-08
-1.68031e-07
1.93659e-08
-2.05806e-07
1.04333e-07
-2.34635e-07
1.93415e-07
-2.52907e-07
2.8142e-07
-2.62204e-07
3.64866e-07
-2.65648e-07
4.42498e-07
-2.66086e-07
5.14753e-07
-2.66362e-07
5.83203e-07
-2.69528e-07
6.50011e-07
-2.78012e-07
7.17614e-07
-2.92272e-07
7.88455e-07
-3.09967e-07
8.63924e-07
-3.26583e-07
9.44129e-07
-3.36867e-07
1.02818e-06
-3.34899e-07
1.11306e-06
-3.15672e-07
1.19224e-06
-2.77424e-07
1.25962e-06
-2.24515e-07
1.31384e-06
-1.66709e-07
1.35648e-06
-1.14332e-07
1.39274e-06
-8.33659e-08
1.43032e-06
-8.60661e-08
1.48101e-06
-1.25091e-07
1.55383e-06
-1.92157e-07
1.6439e-06
-2.61581e-07
1.75006e-06
-3.02306e-07
1.86961e-06
-2.82669e-07
1.95799e-06
-1.75263e-07
1.97931e-06
1.73422e-08
1.94079e-06
2.512e-07
1.82593e-06
4.69382e-07
1.63484e-06
6.31214e-07
1.57851e-06
5.80594e-07
1.73991e-06
2.74844e-07
1.36919e-06
3.18773e-07
1.54403e-09
1.15019e-06
-1.57784e-06
1.98544e-06
-2.6465e-06
2.34435e-06
-3.44404e-06
2.38934e-06
-4.04185e-06
2.32845e-06
-4.52995e-06
2.20592e-06
-4.98188e-06
2.09035e-06
-5.4286e-06
1.9841e-06
-5.88263e-06
1.90081e-06
-6.3518e-06
1.84093e-06
-6.83919e-06
1.80523e-06
-7.34635e-06
1.78796e-06
-7.87171e-06
1.7795e-06
-8.4116e-06
1.76742e-06
-8.9594e-06
1.73869e-06
-9.50315e-06
1.67938e-06
-1.00235e-05
1.57621e-06
-1.04959e-05
1.42074e-06
-1.08962e-05
1.21321e-06
-1.12052e-05
9.62319e-07
-1.14114e-05
6.82625e-07
-1.15117e-05
3.91209e-07
-1.15095e-05
1.04508e-07
-1.14137e-05
-1.64436e-07
-1.12378e-05
-4.06632e-07
-1.09957e-05
-6.17794e-07
-1.06992e-05
-7.97788e-07
-1.03588e-05
-9.49732e-07
-9.98247e-06
-1.07866e-06
-9.57539e-06
-1.18998e-06
-9.14082e-06
-1.28863e-06
-8.68043e-06
-1.3785e-06
-8.19501e-06
-1.46196e-06
-7.68524e-06
-1.53966e-06
-7.15227e-06
-1.61064e-06
-6.59818e-06
-1.67285e-06
-6.0262e-06
-1.72354e-06
-5.44071e-06
-1.75995e-06
-4.84689e-06
-1.77995e-06
-4.25028e-06
-1.7826e-06
-3.65629e-06
-1.76802e-06
-3.07019e-06
-1.73698e-06
-2.4974e-06
-1.69063e-06
-1.94376e-06
-1.63048e-06
-1.41562e-06
-1.55875e-06
-9.18956e-07
-1.47847e-06
-4.5814e-07
-1.39325e-06
-3.38296e-08
-1.30675e-06
3.57568e-07
-1.21979e-06
7.20883e-07
-1.12861e-06
1.05785e-06
-1.02789e-06
1.367e-06
-9.19378e-07
1.64993e-06
-8.18764e-07
1.91639e-06
-7.48805e-07
2.17864e-06
-7.18067e-07
2.43756e-06
-7.04877e-07
2.67565e-06
-6.69903e-07
2.86633e-06
-5.89915e-07
2.99408e-06
-4.8259e-07
3.07735e-06
-4.06591e-07
3.17189e-06
-4.24792e-07
3.32959e-06
-5.46196e-07
3.55568e-06
-7.11808e-07
3.82752e-06
-8.36779e-07
4.12525e-06
-8.7844e-07
4.43262e-06
-8.95847e-07
4.77509e-06
-9.38133e-07
5.16915e-06
-8.62688e-07
5.49592e-06
-5.6649e-07
5.72255e-06
-1.79478e-07
5.96953e-06
3.47648e-07
6.06766e-06
1.16399e-06
5.76514e-06
1.85613e-06
5.18277e-06
1.68044e-06
4.60499e-06
6.6905e-07
4.11145e-06
-1.98498e-07
3.60298e-06
-2.67229e-07
3.02046e-06
2.00243e-07
2.38642e-06
7.15021e-07
1.72764e-06
1.09648e-06
1.02881e-06
1.42528e-06
2.51289e-07
1.82106e-06
-6.02546e-07
2.2765e-06
-1.45505e-06
2.65529e-06
-2.21804e-06
2.82814e-06
-2.88687e-06
2.80112e-06
-3.51699e-06
2.68594e-06
-4.14252e-06
2.57346e-06
-4.77411e-06
2.49497e-06
-5.41834e-06
2.45117e-06
-6.07965e-06
2.42666e-06
-6.7573e-06
2.39832e-06
-7.44201e-06
2.34121e-06
-8.1149e-06
2.23285e-06
-8.74949e-06
2.05722e-06
-9.31592e-06
1.80756e-06
-9.78531e-06
1.48641e-06
-1.01328e-05
1.10316e-06
-1.0339e-05
6.70127e-07
-1.03888e-05
1.97686e-07
-1.02707e-05
-3.08679e-07
-9.97518e-06
-8.44887e-07
-9.49339e-06
-1.40499e-06
-8.82088e-06
-1.97448e-06
-7.96322e-06
-2.52431e-06
-6.94089e-06
-3.01338e-06
-5.79012e-06
-3.39894e-06
-4.55813e-06
-3.65e-06
-3.29525e-06
-3.75597e-06
-2.04763e-06
-3.72666e-06
-8.52635e-07
-3.58574e-06
2.62646e-07
-3.36174e-06
1.28179e-06
-3.08395e-06
2.19474e-06
-2.77657e-06
2.99585e-06
-2.45445e-06
3.68436e-06
-2.12801e-06
4.26784e-06
-1.81086e-06
4.76361e-06
-1.51e-06
5.18095e-06
-1.20461e-06
5.51618e-06
-8.70495e-07
5.77808e-06
-4.97778e-07
5.98042e-06
-9.67827e-08
6.09662e-06
2.89836e-07
6.07086e-06
5.8569e-07
5.88217e-06
7.70805e-07
5.53899e-06
8.8134e-07
5.09991e-06
9.49008e-07
4.67057e-06
1.01313e-06
4.29238e-06
1.05125e-06
9.23505e-07
3.93372e-06
-8.18267e-09
-4.9802e-08
-9.41279e-09
-1.6422e-08
-4.56714e-09
4.52797e-08
6.79981e-09
1.04842e-07
2.35612e-08
1.46526e-07
4.14559e-08
1.63981e-07
5.65297e-08
1.58653e-07
6.59324e-08
1.36278e-07
7.4609e-08
1.06776e-07
8.52385e-08
7.13717e-08
9.96665e-08
3.06108e-08
1.19397e-07
-1.37215e-08
1.45613e-07
-6.19715e-08
1.799e-07
-1.14195e-07
2.24234e-07
-1.69184e-07
2.80449e-07
-2.24246e-07
3.49391e-07
-2.74747e-07
4.30211e-07
-3.15455e-07
5.19745e-07
-3.42441e-07
6.13093e-07
-3.55553e-07
7.05647e-07
-3.58201e-07
7.94558e-07
-3.54997e-07
8.78544e-07
-3.50348e-07
9.56922e-07
-3.47906e-07
1.02896e-06
-3.50052e-07
1.09393e-06
-3.57243e-07
1.15136e-06
-3.67394e-07
1.20146e-06
-3.76687e-07
1.24501e-06
-3.80415e-07
1.28479e-06
-3.74678e-07
1.32699e-06
-3.57875e-07
1.37611e-06
-3.26539e-07
1.43652e-06
-2.84921e-07
1.51037e-06
-2.4056e-07
1.59544e-06
-1.99407e-07
1.68412e-06
-1.72048e-07
1.75677e-06
-1.58714e-07
1.80731e-06
-1.75632e-07
1.85419e-06
-2.39032e-07
1.90622e-06
-3.13612e-07
1.95023e-06
-3.46314e-07
1.97111e-06
-3.0355e-07
1.96261e-06
-1.66764e-07
1.93161e-06
4.83393e-08
1.88304e-06
2.99774e-07
1.82852e-06
5.23902e-07
1.84469e-06
6.15036e-07
1.81451e-06
6.10783e-07
1.16686e-06
9.2249e-07
-2.96146e-07
1.78178e-06
-1.77091e-06
2.62495e-06
-2.77359e-06
2.98812e-06
-3.41089e-06
2.98166e-06
-3.87971e-06
2.85815e-06
-4.26007e-06
2.70881e-06
-4.61069e-06
2.55653e-06
-4.95672e-06
2.43639e-06
-5.32063e-06
2.34801e-06
-5.71419e-06
2.29437e-06
-6.14668e-06
2.27341e-06
-6.62363e-06
2.28218e-06
-7.14865e-06
2.31298e-06
-7.72282e-06
2.35368e-06
-8.34191e-06
2.3865e-06
-8.98935e-06
2.38613e-06
-9.6323e-06
2.32233e-06
-1.02275e-05
2.17139e-06
-1.07336e-05
1.92687e-06
-1.11214e-05
1.60105e-06
-1.13768e-05
1.21771e-06
-1.14989e-05
8.04733e-07
-1.14968e-05
3.89077e-07
-1.13856e-05
-6.69467e-09
-1.1184e-05
-3.66081e-07
-1.09128e-05
-6.77804e-07
-1.0592e-05
-9.38613e-07
-1.02372e-05
-1.15256e-06
-9.85902e-06
-1.32792e-06
-9.46339e-06
-1.47429e-06
-9.05291e-06
-1.60046e-06
-8.6278e-06
-1.71374e-06
-8.18676e-06
-1.81954e-06
-7.72783e-06
-1.92089e-06
-7.2494e-06
-2.01808e-06
-6.75105e-06
-2.10899e-06
-6.23393e-06
-2.18996e-06
-5.70092e-06
-2.25656e-06
-5.15647e-06
-2.3044e-06
-4.60605e-06
-2.33038e-06
-4.05487e-06
-2.33377e-06
-3.50695e-06
-2.31594e-06
-2.96511e-06
-2.27882e-06
-2.43152e-06
-2.22421e-06
-1.90825e-06
-2.15375e-06
-1.39776e-06
-2.06924e-06
-9.03568e-07
-1.97266e-06
-4.3109e-07
-1.86573e-06
1.29382e-08
-1.75078e-06
4.24168e-07
-1.63102e-06
8.03872e-07
-1.50832e-06
1.15645e-06
-1.38047e-06
1.48287e-06
-1.2458e-06
1.77958e-06
-1.11547e-06
2.04653e-06
-1.01576e-06
2.29195e-06
-9.63488e-07
2.52021e-06
-9.33131e-07
2.71473e-06
-8.64424e-07
2.84885e-06
-7.24033e-07
2.92518e-06
-5.5892e-07
2.99104e-06
-4.72457e-07
3.10326e-06
-5.3701e-07
3.28377e-06
-7.26711e-07
3.51203e-06
-9.4006e-07
3.75765e-06
-1.08241e-06
4.01191e-06
-1.1327e-06
4.27755e-06
-1.16148e-06
4.57225e-06
-1.23283e-06
4.93209e-06
-1.22253e-06
5.29942e-06
-9.33823e-07
5.55532e-06
-4.35377e-07
5.72625e-06
1.76715e-07
5.83125e-06
1.05899e-06