/*--------------------------------*- C++ -*----------------------------------*\
  =========                 |
  \\      /  F ield         | OpenFOAM: The Open Source CFD Toolbox
   \\    /   O peration     | Website:  https://openfoam.org
    \\  /    A nd           | Version:  6
     \\/     M anipulation  |
\*---------------------------------------------------------------------------*/
FoamFile
{
    version     2.0;
    format      ascii;
    class       volScalarField;
    location    "0.2";
    object      pMean;
}
// * * * * * * * * * * * * * * * * * * * * * * * * * * * * * * * * * * * * * //

dimensions      [0 2 -2 0 0 0 0];

internalField   nonuniform List<scalar> 
12225
(
2.95386
2.38652
1.98753
1.77749
1.66145
1.5691
1.47688
1.38589
1.30216
1.22879
1.16634
1.11362
1.0702
1.0325
0.997696
0.946402
0.85763
0.640006
2.81849
2.34812
1.97142
1.76257
1.64627
1.55525
1.46465
1.37471
1.29129
1.21788
1.15478
1.10129
1.05564
1.01587
0.975333
0.922312
0.828776
0.667358
2.6876
2.31592
1.97146
1.76128
1.64078
1.54923
1.45956
1.36992
1.28594
1.21122
1.14639
1.0901
1.04072
0.994728
0.946602
0.88447
0.792209
0.655989
2.57336
2.28152
1.97161
1.75974
1.63257
1.53922
1.45032
1.36113
1.27646
1.2002
1.13312
1.07369
1.01971
0.96728
0.910994
0.841279
0.748618
0.622202
2.46809
2.23887
1.96412
1.75428
1.62109
1.5257
1.43789
1.34975
1.26486
1.18724
1.11789
1.05526
0.996714
0.938375
0.875176
0.800224
0.706481
0.587807
2.36538
2.18752
1.94754
1.74513
1.60837
1.51101
1.42418
1.33735
1.25249
1.17353
1.10176
1.03575
0.972715
0.908959
0.840132
0.76111
0.66692
0.554504
2.27114
2.13168
1.92355
1.73281
1.59504
1.49547
1.40886
1.32307
1.23826
1.15792
1.08358
1.01408
0.946703
0.878099
0.804582
0.722366
0.628083
0.520189
2.1946
2.07673
1.89532
1.71848
1.58184
1.47985
1.39239
1.30701
1.22212
1.14041
1.0635
0.990541
0.919107
0.846198
0.768756
0.683956
0.589553
0.48449
2.1295
2.02261
1.86296
1.70088
1.5676
1.46382
1.37501
1.28962
1.20465
1.12177
1.04248
0.96628
0.89114
0.814486
0.733797
0.64694
0.552266
0.448876
2.05836
1.96491
1.82409
1.67666
1.54864
1.44431
1.3542
1.26851
1.18343
1.09959
1.01822
0.939135
0.860731
0.780886
0.697525
0.609014
0.514112
0.41224
1.98805
1.90788
1.78399
1.65023
1.52849
1.42477
1.33362
1.24733
1.16194
1.0772
0.993973
0.912256
0.830892
0.74821
0.662519
0.572568
0.47738
0.376669
1.92384
1.85579
1.74552
1.62302
1.50746
1.40526
1.31354
1.22656
1.14068
1.05516
0.970482
0.88672
0.803052
0.718194
0.630782
0.539841
0.444601
0.344909
1.86273
1.8053
1.70608
1.59326
1.48372
1.38363
1.29175
1.20405
1.11751
1.0312
0.945261
0.859777
0.774193
0.687557
0.598812
0.50719
0.412162
0.313656
1.8082
1.7539
1.66386
1.56022
1.45683
1.35928
1.26752
1.17907
1.09171
1.00447
0.917251
0.83008
0.742621
0.654267
0.564271
0.472106
0.377354
0.280045
1.74801
1.69747
1.615
1.51961
1.42241
1.32804
1.23701
1.14805
1.05982
0.971615
0.883244
0.794683
0.705755
0.616108
0.525283
0.43295
0.338876
0.243087
1.68177
1.63711
1.56144
1.47347
1.38238
1.29163
1.20191
1.11287
1.024
0.934966
0.845631
0.755983
0.665967
0.575446
0.484208
0.392104
0.29904
0.205115
1.62271
1.58124
1.51003
1.42718
1.34079
1.25305
1.16445
1.07527
0.985723
0.895852
0.805651
0.715167
0.624442
0.533498
0.442281
0.3508
0.259028
0.167139
1.5789
1.53597
1.46599
1.38533
1.30097
1.21442
1.12603
1.03642
0.94614
0.855481
0.764563
0.673524
0.582499
0.491617
0.400942
0.310572
0.220552
0.130999
1.55071
1.50675
1.43556
1.35417
1.26932
1.18219
1.09309
1.00265
0.911492
0.820009
0.728456
0.637082
0.546117
0.45574
0.366063
0.277178
0.189166
0.102181
1.54836
1.5042
1.43006
1.34408
1.25468
1.16423
1.07312
0.981448
0.889372
0.797114
0.704981
0.613318
0.522432
0.432524
0.343709
0.256058
0.169655
0.0845486
1.57412
1.52539
1.44445
1.35111
1.25541
1.16078
1.06743
0.974461
0.881257
0.787886
0.694844
0.60266
0.511688
0.422075
0.333854
0.247029
0.161645
0.0778119
1.61789
1.56139
1.46946
1.36529
1.26154
1.16231
1.06678
0.972527
0.878066
0.783405
0.689316
0.596518
0.505347
0.415855
0.327988
0.241736
0.157131
0.074239
1.67451
1.60791
1.50147
1.38334
1.27046
1.16725
1.0704
0.975195
0.879367
0.783237
0.688057
0.594709
0.503422
0.414078
0.326527
0.240732
0.156721
0.0745643
1.7401
1.66068
1.53572
1.40131
1.27976
1.17399
1.07651
0.980264
0.882869
0.785324
0.689277
0.595569
0.504221
0.414953
0.327571
0.242039
0.158422
0.0767919
1.80897
1.71428
1.56654
1.41524
1.28731
1.1808
1.08298
0.985251
0.886
0.787099
0.690399
0.596514
0.505205
0.416063
0.32887
0.243602
0.160339
0.079188
1.88673
1.76697
1.59022
1.42416
1.29421
1.18893
1.09064
0.990907
0.889687
0.789616
0.692446
0.598442
0.507136
0.418067
0.331038
0.246035
0.163091
0.0822135
1.98253
1.81681
1.60397
1.42765
1.30027
1.19753
1.09857
0.996752
0.893803
0.792818
0.695245
0.601002
0.509468
0.420204
0.333061
0.248061
0.165237
0.0846358
2.10097
1.86257
1.60889
1.42687
1.30471
1.20492
1.10556
1.00241
0.898685
0.797602
0.700225
0.606194
0.514819
0.425713
0.338791
0.254136
0.171677
0.0909342
2.22688
1.90087
1.60844
1.42242
1.3037
1.20501
1.1046
1.0002
0.895884
0.794751
0.697512
0.603616
0.512317
0.423306
0.336474
0.252067
0.170151
0.0912376
2.35649
1.94234
1.62513
1.43595
1.31748
1.2179
1.11584
1.00998
0.904674
0.802915
0.705215
0.610931
0.519271
0.429977
0.342886
0.258365
0.176208
0.0971319
-2.46309
-2.48548
-2.50787
-2.51222
-2.49335
-2.46454
-2.45711
-2.50246
-2.61921
-2.80947
-3.06071
-3.34991
-3.6495
-3.93405
-4.18451
-4.38871
-4.54013
-4.63705
-4.68194
-4.68078
-4.64248
-4.5779
-4.49823
-4.41382
-4.33485
-4.27186
-4.23371
-4.22628
-4.23998
-4.26082
-4.28971
-4.34263
-4.43684
-4.57329
-4.73966
-4.92287
-5.11154
-5.29828
-5.49144
-5.70809
-5.9539
-6.22115
-6.49119
-6.74159
-6.96223
-7.15754
-7.3294
-7.46022
-7.54815
-7.6424
-7.77769
-7.93881
-8.09759
-8.23649
-8.37313
-8.54155
-8.75684
-9.01579
-9.29806
-9.58896
-9.88932
-10.1992
-10.5154
-10.8288
-11.1238
-11.3785
-11.5744
-11.6989
-11.745
-11.7093
-11.5828
-11.3556
-11.0507
-10.7159
-10.3757
-10.0362
-9.70699
-9.41917
-9.19598
-9.04227
-8.93862
-8.85247
-8.75764
-8.66804
-8.63246
-8.64152
-8.65955
-8.66668
-8.64332
-8.56154
-8.40473
-8.18517
-7.91579
-7.63246
-7.42642
-7.31376
-7.22026
-7.0758
-6.84325
-6.51093
-6.07252
-5.50833
-4.80982
-3.99248
-3.07837
-2.08188
-1.09704
-0.228021
0.526205
1.18175
1.74239
2.22484
2.65142
3.04484
3.42662
3.81732
4.23464
4.69008
5.18456
5.70586
6.22767
6.73367
7.22342
7.62718
7.85501
7.94493
7.97156
7.96904
7.96497
8.01556
8.18018
8.45464
8.81713
9.1679
9.27617
9.07386
8.72987
8.3151
7.83916
7.44288
7.24819
7.28972
7.56871
8.06807
8.77026
9.65787
10.7127
11.9091
13.2072
14.5505
15.8729
17.1135
18.222
19.1609
19.8841
20.3243
20.4415
20.2861
19.9756
19.6024
19.2159
18.8403
18.4904
18.1882
17.9731
17.8795
17.9158
18.0695
18.3112
18.596
18.8694
19.0834
19.2112
19.2527
19.2263
19.1574
19.0746
18.9841
18.9179
18.8815
-2.5988
-2.62755
-2.66649
-2.6998
-2.72388
-2.75354
-2.81387
-2.92659
-3.10051
-3.32999
-3.59883
-3.88576
-4.16902
-4.42988
-4.65437
-4.83277
-4.95931
-5.03306
-5.05724
-5.03813
-4.98369
-4.90453
-4.81291
-4.72102
-4.63967
-4.57732
-4.53688
-4.52575
-4.54398
-4.5773
-4.63787
-4.74065
-4.88029
-5.04628
-5.22787
-5.4172
-5.60989
-5.79871
-5.98606
-6.19174
-6.41998
-6.65791
-6.89935
-7.13246
-7.34685
-7.5435
-7.73913
-7.91816
-8.0502
-8.17889
-8.32972
-8.48545
-8.64133
-8.78591
-8.93722
-9.11909
-9.33678
-9.5899
-9.86141
-10.1418
-10.4324
-10.7331
-11.0361
-11.3315
-11.6056
-11.8392
-12.0161
-12.1254
-12.1609
-12.1142
-11.9827
-11.7575
-11.459
-11.1351
-10.8174
-10.5128
-10.2097
-9.94199
-9.73499
-9.58312
-9.46788
-9.37652
-9.29829
-9.22291
-9.18513
-9.16824
-9.1461
-9.10208
-9.02881
-8.92284
-8.77511
-8.58481
-8.38115
-8.19693
-8.07455
-7.99231
-7.88195
-7.69815
-7.41862
-7.03882
-6.55108
-5.94088
-5.20775
-4.36688
-3.44523
-2.47678
-1.55016
-0.729708
0.0107878
0.675191
1.26107
1.77806
2.24195
2.67041
3.08378
3.503
3.94665
4.42619
4.9427
5.48391
6.02892
6.53713
6.99104
7.35185
7.56551
7.67337
7.72384
7.7429
7.75554
7.81941
7.99426
8.27716
8.59639
8.8156
8.79501
8.5565
8.21769
7.80915
7.3769
7.05532
6.92364
7.00981
7.31884
7.8386
8.55518
9.45277
10.5148
11.7167
13.0203
14.3705
15.7014
16.952
18.0721
19.0162
19.7231
20.1268
20.2187
20.0707
19.7848
19.4338
19.0615
18.6916
18.342
18.0424
17.8351
17.7495
17.7915
17.951
18.2011
18.496
18.7794
19.0005
19.1332
19.1762
19.1475
19.0708
18.975
18.8578
18.7548
18.6502
-2.6845
-2.71574
-2.78411
-2.88541
-3.01476
-3.17426
-3.36838
-3.59833
-3.8594
-4.14102
-4.42793
-4.70458
-4.95861
-5.18083
-5.36422
-5.50352
-5.59571
-5.64155
-5.64408
-5.60809
-5.54036
-5.45006
-5.34829
-5.24607
-5.15414
-5.08248
-5.03521
-5.01565
-5.03161
-5.08602
-5.18397
-5.32098
-5.48435
-5.67076
-5.87056
-6.071
-6.26755
-6.46199
-6.65857
-6.86488
-7.07967
-7.29206
-7.50355
-7.72033
-7.94986
-8.18298
-8.40681
-8.62251
-8.82142
-9.00898
-9.18838
-9.35648
-9.51385
-9.67131
-9.84532
-10.0426
-10.2614
-10.5012
-10.7592
-11.0277
-11.3026
-11.584
-11.8642
-12.1317
-12.3717
-12.569
-12.7116
-12.793
-12.8102
-12.7599
-12.6363
-12.4369
-12.1816
-11.8974
-11.5998
-11.3051
-11.023
-10.7806
-10.5845
-10.4212
-10.2922
-10.1986
-10.1339
-10.0772
-10.0256
-9.9673
-9.89363
-9.79836
-9.68239
-9.5595
-9.43677
-9.32213
-9.24047
-9.1979
-9.16855
-9.10478
-8.96348
-8.72267
-8.37616
-7.92461
-7.36219
-6.6827
-5.89873
-5.03403
-4.12136
-3.21244
-2.35502
-1.56124
-0.820273
-0.136084
0.490615
1.06095
1.58138
2.06316
2.52444
2.98727
3.47208
3.98952
4.53885
5.1066
5.65765
6.14739
6.55576
6.87212
7.08995
7.22983
7.31084
7.35167
7.38169
7.46636
7.65595
7.912
8.10612
8.12152
7.96192
7.69908
7.35988
6.97351
6.62781
6.4078
6.35598
6.50089
6.85042
7.39959
8.1379
9.05207
10.1268
11.3399
12.6559
14.0217
15.3716
16.6422
17.7799
18.728
19.4083
19.7674
19.8384
19.7058
19.4481
19.1222
18.7671
18.4064
18.0643
17.7779
17.5874
17.5155
17.5678
17.738
18.0012
18.3111
18.6096
18.8449
18.9889
19.0365
19.0043
18.9138
18.7931
18.6402
18.4909
18.3135
-2.76763
-2.82154
-2.95609
-3.1675
-3.43469
-3.73283
-4.04377
-4.35655
-4.66437
-4.96162
-5.24178
-5.49748
-5.72176
-5.9094
-6.05758
-6.16494
-6.23078
-6.2564
-6.24515
-6.2015
-6.13225
-6.04626
-5.95299
-5.8626
-5.78257
-5.71822
-5.67658
-5.66264
-5.68181
-5.7386
-5.83432
-5.96498
-6.12347
-6.30475
-6.49928
-6.69684
-6.89518
-7.10251
-7.32148
-7.54233
-7.76425
-7.98714
-8.20953
-8.44388
-8.70154
-8.97313
-9.24117
-9.4996
-9.74675
-9.97669
-10.182
-10.3712
-10.5484
-10.7218
-10.9052
-11.1087
-11.3294
-11.5635
-11.8098
-12.0662
-12.3279
-12.5904
-12.846
-13.084
-13.2884
-13.4465
-13.5517
-13.605
-13.6071
-13.5593
-13.4562
-13.2936
-13.0772
-12.8176
-12.53
-12.237
-11.9604
-11.7207
-11.5195
-11.3527
-11.2298
-11.1502
-11.0914
-11.0321
-10.9612
-10.8734
-10.7701
-10.6572
-10.542
-10.4377
-10.3623
-10.3423
-10.3831
-10.444
-10.4701
-10.4149
-10.2482
-9.95918
-9.5503
-9.02677
-8.3891
-7.64159
-6.80915
-5.92788
-5.03926
-4.17255
-3.34103
-2.54772
-1.79469
-1.08281
-0.41224
0.212217
0.789696
1.32674
1.83969
2.35075
2.88034
3.43769
4.0184
4.59878
5.13632
5.59812
5.97996
6.28455
6.51484
6.67702
6.77539
6.82303
6.86355
6.97036
7.16331
7.34219
7.36167
7.21316
6.97495
6.67861
6.3252
5.97916
5.71519
5.5779
5.59815
5.80261
6.19855
6.78423
7.55044
8.48599
9.57728
10.8052
12.1379
13.5256
14.9018
16.1981
17.3542
18.3029
18.9599
19.2926
19.3609
19.2468
19.0121
18.7049
18.3627
18.0139
17.6888
17.425
17.2563
17.2012
17.2664
17.4492
17.728
18.0567
18.3748
18.6282
18.7858
18.8399
18.8045
18.6977
18.5456
18.3586
18.1677
17.9424
-2.92242
-3.03317
-3.2676
-3.58765
-3.94553
-4.31106
-4.67013
-5.015
-5.34002
-5.64139
-5.91691
-6.16373
-6.3772
-6.55299
-6.68867
-6.78342
-6.83826
-6.85548
-6.83945
-6.79652
-6.7346
-6.66281
-6.59094
-6.527
-6.47614
-6.44252
-6.42924
-6.43704
-6.46671
-6.52078
-6.60067
-6.70553
-6.8328
-6.98015
-7.14556
-7.32806
-7.52892
-7.75446
-7.99963
-8.25229
-8.50696
-8.77055
-9.04559
-9.33612
-9.64079
-9.94868
-10.2507
-10.5412
-10.8161
-11.0718
-11.3057
-11.5172
-11.7059
-11.8832
-12.0681
-12.2692
-12.4797
-12.699
-12.9289
-13.17
-13.4166
-13.6612
-13.8948
-14.1053
-14.2779
-14.4015
-14.4739
-14.502
-14.4929
-14.4476
-14.3548
-14.2067
-14.0023
-13.7494
-13.4687
-13.1839
-12.9163
-12.6806
-12.4814
-12.3262
-12.2209
-12.1513
-12.0906
-12.0237
-11.9432
-11.849
-11.7499
-11.6571
-11.5747
-11.5136
-11.5073
-11.5827
-11.7095
-11.8231
-11.8695
-11.8093
-11.6181
-11.2898
-10.8295
-10.2458
-9.54627
-8.74454
-7.87676
-6.99323
-6.12644
-5.2736
-4.43917
-3.63309
-2.85815
-2.11105
-1.39504
-0.718391
-0.086
0.505723
1.07149
1.63216
2.20592
2.7991
3.39987
3.97647
4.49247
4.93394
5.30611
5.61049
5.84785
6.02076
6.12491
6.17104
6.21979
6.34081
6.50866
6.56587
6.42545
6.18156
5.89576
5.55779
5.1959
4.89127
4.68754
4.61301
4.69655
4.95873
5.40405
6.02995
6.82701
7.78568
8.89455
10.1378
11.488
12.8992
14.3042
15.6276
16.7996
17.7459
18.3882
18.7142
18.7955
18.7065
18.4984
18.2121
17.8849
17.5508
17.2454
17.0057
16.8606
16.8241
16.9021
17.0953
17.3874
17.7352
18.0758
18.3506
18.5248
18.5877
18.5498
18.4253
18.2405
18.0212
17.7974
17.546
-3.2066
-3.37849
-3.68363
-4.04509
-4.42317
-4.80279
-5.1759
-5.53707
-5.88193
-6.20592
-6.50361
-6.76866
-6.99531
-7.18016
-7.32258
-7.42376
-7.48565
-7.5109
-7.50411
-7.47187
-7.42327
-7.36986
-7.32154
-7.28513
-7.26598
-7.26718
-7.28764
-7.32298
-7.36929
-7.4259
-7.4941
-7.57531
-7.67147
-7.78581
-7.92468
-8.09451
-8.30116
-8.54585
-8.81856
-9.11016
-9.41857
-9.74589
-10.0909
-10.4467
-10.7996
-11.1394
-11.4653
-11.7759
-12.0656
-12.3325
-12.5762
-12.7912
-12.9772
-13.1461
-13.3153
-13.4911
-13.6724
-13.8643
-14.0707
-14.2915
-14.5194
-14.7445
-14.9547
-15.1376
-15.2805
-15.374
-15.4179
-15.4235
-15.4018
-15.3526
-15.2575
-15.106
-14.8993
-14.652
-14.3875
-14.1257
-13.8782
-13.6551
-13.4663
-13.3243
-13.2291
-13.1587
-13.0933
-13.024
-12.9482
-12.8703
-12.8008
-12.7475
-12.711
-12.71
-12.7862
-12.946
-13.1262
-13.2608
-13.3047
-13.2256
-13.0051
-12.6407
-12.1388
-11.5105
-10.7688
-9.93338
-9.05182
-8.18125
-7.33012
-6.47492
-5.62495
-4.79606
-3.98868
-3.19934
-2.43459
-1.70377
-1.01391
-0.364265
0.257165
0.86828
1.48339
2.10393
2.71093
3.27214
3.76547
4.19139
4.5554
4.85623
5.09438
5.27122
5.37643
5.42239
5.47808
5.59653
5.70106
5.62049
5.36522
5.06798
4.74354
4.371
4.01384
3.74473
3.58677
3.5647
3.70473
4.02031
4.51272
5.17675
6.0027
6.98276
8.10785
9.36503
10.731
12.1639
13.5965
14.9461
16.1319
17.0758
17.7123
18.0455
18.1504
18.094
17.9182
17.6576
17.3502
17.0347
16.7511
16.537
16.4181
16.403
16.4935
16.693
16.9935
17.3567
17.7184
18.0152
18.208
18.2829
18.2448
18.1032
17.8872
17.6383
17.3901
17.1244
-3.6271
-3.80428
-4.09006
-4.42453
-4.78903
-5.17191
-5.56138
-5.94841
-6.32634
-6.68797
-7.02424
-7.32569
-7.58535
-7.79992
-7.96916
-8.09426
-8.17678
-8.21993
-8.22977
-8.21479
-8.18517
-8.15235
-8.12692
-8.11676
-8.12665
-8.15852
-8.2099
-8.27458
-8.34563
-8.4189
-8.49424
-8.5739
-8.66282
-8.76956
-8.90599
-9.08269
-9.30729
-9.57836
-9.89017
-10.2335
-10.6023
-10.9946
-11.402
-11.8092
-12.1992
-12.5648
-12.9075
-13.226
-13.5135
-13.7705
-13.9987
-14.1914
-14.351
-14.4886
-14.6193
-14.7536
-14.8964
-15.0549
-15.2334
-15.4289
-15.6322
-15.8309
-16.0117
-16.1628
-16.274
-16.3389
-16.3589
-16.3444
-16.3112
-16.2558
-16.1562
-16.0034
-15.8045
-15.5768
-15.3382
-15.0997
-14.8678
-14.6535
-14.4714
-14.3334
-14.2348
-14.1563
-14.0851
-14.0169
-13.9539
-13.9039
-13.8728
-13.8625
-13.8765
-13.9457
-14.1087
-14.3416
-14.5622
-14.7093
-14.7454
-14.6439
-14.3931
-13.9948
-13.4587
-12.7985
-12.0311
-11.1816
-10.3052
-9.45443
-8.60967
-7.74045
-6.86486
-6.00326
-5.15608
-4.3213
-3.50573
-2.71845
-1.96766
-1.25576
-0.575391
0.0860621
0.737288
1.37359
1.97324
2.51252
2.98456
3.39525
3.74688
4.03823
4.2718
4.44777
4.55349
4.60391
4.662
4.75707
4.77217
4.56726
4.23832
3.90632
3.54763
3.15402
2.81103
2.57266
2.45346
2.478
2.66765
3.02968
3.56238
4.25801
5.10746
6.10499
7.24395
8.51338
9.89308
11.345
12.802
14.1749
15.3731
16.3171
16.9555
17.3045
17.4396
17.4212
17.2819
17.0507
16.7664
16.4721
16.2112
16.0232
15.9327
15.942
16.047
16.2526
16.5583
16.9324
17.311
17.627
17.8377
17.926
17.8911
17.7367
17.4948
17.2213
16.9547
16.6798
-4.01245
-4.15019
-4.38517
-4.69194
-5.05496
-5.45373
-5.86984
-6.29105
-6.70882
-7.11392
-7.49543
-7.84194
-8.1448
-8.39997
-8.60672
-8.76556
-8.87806
-8.94787
-8.98119
-8.98703
-8.97666
-8.96261
-8.95674
-8.96848
-9.00348
-9.06276
-9.14294
-9.23784
-9.33955
-9.44231
-9.54525
-9.6515
-9.76847
-9.90767
-10.0825
-10.3042
-10.5778
-10.9005
-11.2685
-11.6705
-12.0952
-12.5372
-12.9851
-13.4212
-13.8315
-14.2125
-14.5633
-14.8769
-15.146
-15.375
-15.5668
-15.7151
-15.8264
-15.9146
-15.995
-16.0814
-16.182
-16.3035
-16.4476
-16.6093
-16.7775
-16.9384
-17.0791
-17.1902
-17.265
-17.3009
-17.2994
-17.2692
-17.2297
-17.1742
-17.079
-16.9393
-16.7634
-16.5623
-16.345
-16.1179
-15.8899
-15.6754
-15.4902
-15.344
-15.2312
-15.1384
-15.0573
-14.9878
-14.9365
-14.9126
-14.9162
-14.9458
-15.012
-15.1545
-15.402
-15.7017
-15.963
-16.1291
-16.1664
-16.0513
-15.7783
-15.3538
-14.7916
-14.1089
-13.3257
-12.4714
-11.6042
-10.7658
-9.91335
-9.0193
-8.11157
-7.21373
-6.32793
-5.4526
-4.59097
-3.75066
-2.94003
-2.16509
-1.42526
-0.715419
-0.0338018
0.609743
1.19622
1.71484
2.16978
2.5661
2.90287
3.18081
3.40512
3.57639
3.68378
3.74208
3.79659
3.85119
3.77261
3.47155
3.09576
2.73637
2.3476
1.94404
1.61871
1.40789
1.32347
1.3892
1.62063
2.02032
2.58424
3.30303
4.16904
5.17909
6.32915
7.60954
9.00187
10.4706
11.9485
13.3408
14.5491
15.4949
16.1403
16.5104
16.6791
16.7012
16.6005
16.4009
16.1423
15.8705
15.632
15.4695
15.4075
15.4431
15.5657
15.779
16.0881
16.4689
16.8593
17.19
17.4157
17.5169
17.4884
17.3285
17.0704
16.7807
16.5018
16.2209
-4.22688
-4.34202
-4.56607
-4.88428
-5.26925
-5.69304
-6.13674
-6.58847
-7.03932
-7.48042
-7.90169
-8.29136
-8.63883
-8.93762
-9.1854
-9.38252
-9.53129
-9.63564
-9.7014
-9.73758
-9.75567
-9.76766
-9.78482
-9.81805
-9.87571
-9.95963
-10.0666
-10.1909
-10.3247
-10.4636
-10.6084
-10.764
-10.9394
-11.147
-11.3994
-11.7051
-12.0635
-12.4677
-12.9092
-13.3724
-13.8434
-14.3172
-14.7842
-15.2293
-15.6444
-16.028
-16.3741
-16.6697
-16.9094
-17.1023
-17.2516
-17.3507
-17.4078
-17.4401
-17.4661
-17.5008
-17.5527
-17.6269
-17.7234
-17.8368
-17.956
-18.0685
-18.1632
-18.2332
-18.2749
-18.2875
-18.2716
-18.233
-18.1899
-18.1383
-18.0542
-17.9343
-17.7824
-17.601
-17.3931
-17.167
-16.9357
-16.714
-16.5161
-16.3499
-16.2125
-16.0969
-15.9993
-15.9228
-15.8771
-15.8711
-15.9016
-15.9669
-16.0847
-16.298
-16.6236
-16.987
-17.2932
-17.4879
-17.5374
-17.4203
-17.136
-16.6963
-16.1198
-15.425
-14.6337
-13.7758
-12.9081
-12.0651
-11.1929
-10.2707
-9.33419
-8.40652
-7.49125
-6.58632
-5.68984
-4.8054
-3.9407
-3.10615
-2.30962
-1.5549
-0.846524
-0.196811
0.380789
0.886351
1.32949
1.71326
2.03598
2.30069
2.5148
2.68114
2.79294
2.86085
2.90713
2.91321
2.75243
2.38341
1.97518
1.59132
1.17717
0.770856
0.463834
0.278661
0.225708
0.326378
0.590856
1.01861
1.60406
2.3372
3.21248
4.22994
5.3885
6.67902
8.08325
9.5666
11.0617
12.4688
13.6836
14.6312
15.2862
15.6797
15.8824
15.9449
15.8831
15.7166
15.4862
15.2389
15.0232
14.8849
14.8494
14.9105
15.0527
15.2763
15.5885
15.9717
16.368
16.708
16.9451
17.0582
17.039
16.8813
16.6183
16.3226
16.0384
15.7555
-4.30319
-4.43522
-4.69086
-5.03724
-5.43913
-5.87507
-6.33423
-6.80799
-7.28671
-7.76017
-8.21787
-8.64842
-9.04109
-9.38776
-9.68371
-9.92749
-10.1206
-10.2671
-10.3735
-10.4496
-10.5067
-10.5551
-10.605
-10.6672
-10.7506
-10.8581
-10.9886
-11.1387
-11.3031
-11.4807
-11.6758
-11.896
-12.1508
-12.45
-12.802
-13.209
-13.6644
-14.1569
-14.6717
-15.1909
-15.6999
-16.1954
-16.6732
-17.1228
-17.5388
-17.9183
-18.2507
-18.5212
-18.7287
-18.8858
-18.9961
-19.0519
-19.0604
-19.0393
-19.0085
-18.9853
-18.9799
-18.9962
-19.0328
-19.0855
-19.1471
-19.2077
-19.2588
-19.2953
-19.314
-19.3123
-19.2896
-19.2492
-19.2057
-19.1564
-19.0806
-18.9746
-18.8366
-18.6632
-18.4561
-18.226
-17.9873
-17.7525
-17.5329
-17.3362
-17.1652
-17.0196
-16.9003
-16.8116
-16.7647
-16.7682
-16.8183
-16.9157
-17.082
-17.3602
-17.7559
-18.1797
-18.5313
-18.7578
-18.8254
-18.7145
-18.4297
-17.9882
-17.4112
-16.7166
-15.9256
-15.0641
-14.1837
-13.3198
-12.4221
-11.4767
-10.5216
-9.57528
-8.64205
-7.71924
-6.79985
-5.88145
-4.97097
-4.08419
-3.23771
-2.44332
-1.71003
-1.05037
-0.47312
0.0277003
0.463515
0.83748
1.15004
1.40637
1.61509
1.78159
1.90292
1.98215
2.01829
1.97696
1.75136
1.33567
0.903315
0.498274
0.0650261
-0.338913
-0.627261
-0.788299
-0.813985
-0.68562
-0.397169
0.0489003
0.646069
1.38489
2.26264
3.28325
4.44856
5.74864
7.16357
8.65843
10.1657
11.5818
12.7985
13.7459
14.4103
14.8268
15.0618
15.162
15.1378
15.0056
14.806
14.586
14.3948
14.2797
14.2676
14.3509
14.5115
14.7469
15.0633
15.4464
15.8431
16.187
16.4318
16.5555
16.5483
16.4002
16.1419
15.8489
15.5658
15.2853
-4.3622
-4.51732
-4.79501
-5.14813
-5.55472
-6.00238
-6.48055
-6.97871
-7.48624
-7.99196
-8.48457
-8.95302
-9.38751
-9.78039
-10.1264
-10.4228
-10.6691
-10.8681
-11.0258
-11.1517
-11.2564
-11.3493
-11.44
-11.5389
-11.6544
-11.7904
-11.9481
-12.1259
-12.3212
-12.537
-12.7823
-13.0673
-13.4011
-13.7901
-14.2358
-14.7317
-15.2669
-15.8279
-16.3988
-16.9633
-17.5053
-18.0202
-18.5089
-18.9645
-19.3819
-19.7565
-20.0758
-20.3274
-20.5123
-20.6445
-20.7264
-20.7477
-20.7146
-20.6447
-20.558
-20.4738
-20.4057
-20.3592
-20.3338
-20.3277
-20.3364
-20.3516
-20.3659
-20.3751
-20.3756
-20.363
-20.3343
-20.2917
-20.2456
-20.1913
-20.1143
-20.0116
-19.8777
-19.7066
-19.4994
-19.2657
-19.017
-18.7633
-18.5143
-18.2796
-18.0689
-17.8895
-17.7457
-17.6424
-17.5904
-17.5982
-17.6638
-17.7916
-18.0021
-18.3363
-18.7918
-19.2675
-19.6556
-19.9062
-19.9901
-19.8911
-19.6165
-19.1858
-18.6209
-17.9387
-17.158
-16.2987
-15.4049
-14.5171
-13.5959
-12.635
-11.6705
-10.7157
-9.77459
-8.84388
-7.91045
-6.96665
-6.01943
-5.09007
-4.20275
-3.37481
-2.61831
-1.9453
-1.36231
-0.861375
-0.429763
-0.0612263
0.248083
0.504622
0.717132
0.892729
1.03078
1.12456
1.15261
1.07147
0.798275
0.35169
-0.0968047
-0.51687
-0.961234
-1.35916
-1.62966
-1.76953
-1.77341
-1.62472
-1.32106
-0.866292
-0.267013
0.469574
1.34461
2.36567
3.53666
4.84556
6.26919
7.77103
9.28316
10.7
11.9125
12.856
13.5272
13.9643
14.2278
14.3611
14.372
14.2743
14.1078
13.918
13.7531
13.661
13.6694
13.7706
13.9464
14.1927
14.5138
14.8962
15.2898
15.633
15.8821
16.0154
16.0224
15.8904
15.6443
15.3592
15.0813
14.8068
-4.45257
-4.60616
-4.8759
-5.22922
-5.64965
-6.12168
-6.62967
-7.15932
-7.69874
-8.23695
-8.76337
-9.26796
-9.74166
-10.1768
-10.568
-10.9121
-11.2092
-11.4618
-11.6757
-11.8593
-12.0216
-12.1705
-12.3143
-12.4617
-12.6192
-12.7899
-12.9758
-13.1781
-13.3981
-13.6442
-13.9284
-14.2616
-14.6516
-15.1022
-15.6095
-16.1627
-16.7487
-17.354
-17.9652
-18.5671
-19.14
-19.6751
-20.1765
-20.6403
-21.0608
-21.4322
-21.7442
-21.988
-22.1658
-22.2893
-22.3567
-22.3532
-22.2848
-22.1723
-22.0364
-21.8974
-21.7716
-21.6675
-21.5881
-21.5345
-21.503
-21.4844
-21.4702
-21.4563
-21.4398
-21.4158
-21.3796
-21.3316
-21.2767
-21.207
-21.1155
-21.0056
-20.8706
-20.7012
-20.4958
-20.2591
-19.9982
-19.7206
-19.4364
-19.1591
-18.9065
-18.6931
-18.5259
-18.4094
-18.3525
-18.3647
-18.4462
-18.6039
-18.8534
-19.2284
-19.724
-20.2343
-20.6424
-20.9032
-20.9968
-20.9116
-20.6549
-20.2447
-19.7027
-19.0441
-18.2832
-17.4345
-16.5389
-15.6394
-14.7064
-13.7396
-12.7739
-11.8193
-10.8789
-9.94729
-9.005
-8.0411
-7.06415
-6.10074
-5.18082
-4.32548
-3.54892
-2.86387
-2.27652
-1.77759
-1.3499
-0.981734
-0.66705
-0.399956
-0.172541
0.022736
0.185464
0.299317
0.326808
0.218679
-0.0851717
-0.548159
-1.00338
-1.43004
-1.87699
-2.26785
-2.52381
-2.64685
-2.63436
-2.47201
-2.16136
-1.70696
-1.11406
-0.386294
0.482461
1.50253
2.67815
3.99434
5.42345
6.92604
8.43345
9.84105
11.0419
11.9769
12.6511
13.1046
13.3911
13.5512
13.593
13.5291
13.3969
13.2393
13.1022
13.0326
13.0593
13.1753
13.3626
13.6168
13.9418
14.3232
14.7124
15.052
15.3027
15.4445
15.4673
15.3559
15.127
14.8526
14.5818
14.3148
-4.50584
-4.65516
-4.92891
-5.30188
-5.75328
-6.26213
-6.80902
-7.37722
-7.95346
-8.52639
-9.08583
-9.62248
-10.1282
-10.5964
-11.0235
-11.4082
-11.7513
-12.0558
-12.3272
-12.5724
-12.7977
-13.0086
-13.2105
-13.4093
-13.609
-13.8125
-14.0235
-14.2444
-14.4806
-14.7437
-15.0461
-15.3981
-15.8087
-16.2816
-16.8125
-17.3897
-17.999
-18.6265
-19.2612
-19.8909
-20.4925
-21.0504
-21.567
-22.0413
-22.4673
-22.8395
-23.1508
-23.3968
-23.5809
-23.712
-23.7828
-23.7707
-23.6806
-23.5376
-23.3645
-23.1828
-23.0121
-22.8642
-22.7454
-22.659
-22.6005
-22.5592
-22.5255
-22.4942
-22.4633
-22.429
-22.3847
-22.3282
-22.2611
-22.1725
-22.0601
-21.9356
-21.7967
-21.6303
-21.4278
-21.187
-20.9116
-20.6077
-20.287
-19.9679
-19.6754
-19.4306
-19.243
-19.1161
-19.0561
-19.0731
-19.1698
-19.3531
-19.6336
-20.0289
-20.5358
-21.0572
-21.4669
-21.724
-21.8198
-21.7471
-21.5109
-21.1264
-20.6135
-19.9855
-19.2519
-18.426
-17.5465
-16.6553
-15.7286
-14.77
-13.8148
-12.8702
-11.9381
-11.0095
-10.0606
-9.07917
-8.07689
-7.08612
-6.14078
-5.26442
-4.47399
-3.78335
-3.199
-2.70874
-2.28712
-1.91559
-1.58804
-1.30107
-1.0485
-0.823715
-0.629137
-0.488578
-0.449967
-0.568142
-0.883721
-1.34709
-1.79999
-2.22349
-2.66499
-3.05011
-3.29612
-3.40635
-3.3827
-3.21297
-2.90243
-2.45613
-1.87641
-1.16286
-0.303342
0.714912
1.89394
3.21429
4.64352
6.1389
7.63104
9.01859
10.2
11.1219
11.7949
12.2596
12.5623
12.742
12.8094
12.7771
12.6788
12.554
12.4445
12.3963
12.4397
12.5684
12.7645
13.0242
13.3509
13.7302
14.1143
14.4494
14.7001
14.8491
14.8871
14.7981
14.5893
14.3271
14.0645
13.8053
-4.48992
-4.65115
-4.94911
-5.35414
-5.84204
-6.38972
-6.97646
-7.58364
-8.19573
-8.80018
-9.38714
-9.94876
-10.4793
-10.9758
-11.4375
-11.8648
-12.2582
-12.6182
-12.9469
-13.2489
-13.5297
-13.7935
-14.0438
-14.2836
-14.5159
-14.7452
-14.9763
-15.2127
-15.461
-15.7324
-16.0375
-16.3866
-16.7894
-17.2515
-17.7715
-18.3408
-18.9461
-19.5741
-20.214
-20.8551
-21.4767
-22.0554
-22.5856
-23.0682
-23.4994
-23.8749
-24.1907
-24.4467
-24.6481
-24.8033
-24.9014
-24.9079
-24.8193
-24.6637
-24.4698
-24.2631
-24.0663
-23.893
-23.7507
-23.6435
-23.5664
-23.5092
-23.4617
-23.4179
-23.3763
-23.3339
-23.2836
-23.2202
-23.1407
-23.0348
-22.9061
-22.7725
-22.6334
-22.4732
-22.2746
-22.0297
-21.7412
-21.4147
-21.0625
-20.7063
-20.3772
-20.1037
-19.8991
-19.7649
-19.7028
-19.7215
-19.8262
-20.0229
-20.3195
-20.7153
-21.2051
-21.7102
-22.1044
-22.3457
-22.4354
-22.3705
-22.1527
-21.7922
-21.3073
-20.7126
-20.0165
-19.231
-18.3898
-17.5298
-16.6302
-15.6964
-14.7658
-13.8425
-12.9257
-12.0042
-11.0516
-10.0561
-9.03353
-8.02174
-7.05788
-6.16762
-5.37029
-4.68145
-4.10788
-3.63269
-3.2199
-2.84329
-2.49775
-2.184
-1.89869
-1.63753
-1.40597
-1.23273
-1.17006
-1.27956
-1.58608
-2.03269
-2.47573
-2.88607
-3.3143
-3.6953
-3.9364
-4.03762
-4.00839
-3.8372
-3.53179
-3.09938
-2.53844
-1.84368
-0.996327
0.0187425
1.19898
2.51843
3.94015
5.41867
6.88454
8.24166
9.39616
10.3002
10.9676
11.4373
11.7489
11.9406
12.0283
12.025
11.9596
11.866
11.7823
11.7533
11.811
11.9502
12.154
12.4181
12.7452
13.1203
13.4979
13.8278
14.0781
14.2331
14.2842
14.2162
14.0283
13.7796
13.5262
13.2754
-4.38171
-4.55413
-4.86916
-5.29708
-5.81361
-6.39298
-7.01212
-7.65065
-8.29207
-8.92465
-9.54077
-10.1344
-10.7002
-11.2349
-11.7383
-12.2109
-12.6527
-13.0616
-13.4371
-13.7827
-14.1047
-14.4079
-14.6938
-14.9634
-15.2208
-15.473
-15.7254
-15.9813
-16.2462
-16.5272
-16.8313
-17.167
-17.5434
-17.9683
-18.4463
-18.9762
-19.5506
-20.1584
-20.7863
-21.4204
-22.0432
-22.631
-23.1704
-23.6587
-24.0931
-24.473
-24.7994
-25.0757
-25.3082
-25.5035
-25.6478
-25.6985
-25.6392
-25.4954
-25.3024
-25.0921
-24.8907
-24.7125
-24.5641
-24.4475
-24.3588
-24.2898
-24.2328
-24.1816
-24.1333
-24.0855
-24.0315
-23.9639
-23.8773
-23.7622
-23.6255
-23.4888
-23.3532
-23.2026
-23.0143
-22.7723
-22.4751
-22.1292
-21.7493
-21.3612
-21.0019
-20.7071
-20.4921
-20.3538
-20.2876
-20.3003
-20.4001
-20.5922
-20.8833
-21.2622
-21.7141
-22.1783
-22.5414
-22.7568
-22.8306
-22.7644
-22.5575
-22.2149
-21.7548
-21.1976
-20.5532
-19.8264
-19.0426
-18.2328
-17.3796
-16.4886
-15.5968
-14.7063
-13.8134
-12.9053
-11.955
-10.9521
-9.91675
-8.89139
-7.91544
-7.01761
-6.22084
-5.54194
-4.98549
-4.52871
-4.12558
-3.74286
-3.3763
-3.03103
-2.70789
-2.40628
-2.13437
-1.92352
-1.82556
-1.90773
-2.18426
-2.59838
-3.02304
-3.41185
-3.82037
-4.19639
-4.43716
-4.53378
-4.50395
-4.33706
-4.04085
-3.62618
-3.08828
-2.41532
-1.58262
-0.573578
0.603602
1.9152
3.31986
4.77016
6.19838
7.51574
8.63694
9.51859
10.1752
10.6433
10.9564
11.153
11.2556
11.2778
11.2428
11.1777
11.1168
11.1043
11.1728
11.3199
11.5304
11.7997
12.1268
12.4955
12.8641
13.1876
13.4367
13.5961
13.6572
13.607
13.4399
13.2055
12.9628
12.7218
-4.07574
-4.25051
-4.57241
-5.01692
-5.55703
-6.1638
-6.81349
-7.48632
-8.16658
-8.84275
-9.50669
-10.1502
-10.7633
-11.3386
-11.8759
-12.3779
-12.8467
-13.2832
-13.6883
-14.0662
-14.4231
-14.7628
-15.0855
-15.392
-15.6866
-15.9761
-16.2646
-16.5524
-16.8403
-17.1316
-17.4295
-17.7407
-18.076
-18.4461
-18.8608
-19.3268
-19.8453
-20.4102
-21.0061
-21.6122
-22.2099
-22.781
-23.311
-23.7947
-24.2315
-24.6227
-24.9712
-25.2799
-25.5535
-25.7957
-25.9933
-26.104
-26.1025
-26.0044
-25.8428
-25.6548
-25.473
-25.3133
-25.1799
-25.0716
-24.9854
-24.9159
-24.8577
-24.8058
-24.7556
-24.7046
-24.6462
-24.5716
-24.475
-24.3504
-24.2077
-24.0694
-23.9404
-23.8077
-23.6409
-23.4106
-23.1091
-22.7477
-22.3465
-21.9358
-21.5565
-21.2471
-21.0229
-20.8776
-20.8012
-20.7971
-20.8759
-21.0448
-21.3095
-21.6564
-22.0587
-22.4667
-22.7869
-22.9689
-23.0176
-22.9382
-22.7306
-22.3995
-21.9638
-21.4496
-20.8671
-20.213
-19.5021
-18.7577
-17.9658
-17.1314
-16.2903
-15.443
-14.5821
-13.6937
-12.7528
-11.7515
-10.7135
-9.68474
-8.70702
-7.81217
-7.02676
-6.36746
-5.83436
-5.39763
-5.00285
-4.61181
-4.22136
-3.84037
-3.47486
-3.12941
-2.81463
-2.56245
-2.4221
-2.46014
-2.68721
-3.05346
-3.44631
-3.8093
-4.19085
-4.55525
-4.79894
-4.89645
-4.87008
-4.7131
-4.43078
-4.03642
-3.52291
-2.87165
-2.05503
-1.0565
0.110712
1.40533
2.78121
4.19007
5.56848
6.8373
7.91986
8.77525
9.41628
9.87694
10.1863
10.3825
10.4944
10.5366
10.5267
10.4852
10.4433
10.444
10.52
10.6725
10.889
11.164
11.4916
11.8525
12.2094
12.5242
12.7703
12.9319