/*--------------------------------*- C++ -*----------------------------------*\
  =========                 |
  \\      /  F ield         | OpenFOAM: The Open Source CFD Toolbox
   \\    /   O peration     | Website:  https://openfoam.org
    \\  /    A nd           | Version:  6
     \\/     M anipulation  |
\*---------------------------------------------------------------------------*/
FoamFile
{
    version     2.0;
    format      ascii;
    class       volVectorField;
    location    "0.2";
    object      U_0;
}
// * * * * * * * * * * * * * * * * * * * * * * * * * * * * * * * * * * * * * //

dimensions      [0 1 -1 0 0 0 0];

internalField   nonuniform List<vector> 
12225
(
(10.0626 0.110902 0)
(9.74112 0.115414 0)
(9.3923 0.0425828 0)
(9.01824 -0.0199847 0)
(8.70345 -0.0217309 0)
(8.43296 0.0127415 0)
(8.15684 0.0475007 0)
(7.87077 0.0614159 0)
(7.60671 0.0545719 0)
(7.38833 0.0394791 0)
(7.21559 0.0283425 0)
(7.06293 0.0268358 0)
(6.90834 0.0357496 0)
(6.72089 0.0487036 0)
(6.52718 0.0583107 0)
(6.29328 0.0603336 0)
(6.096 0.0598771 0)
(5.86643 0.0414245 0)
(9.92176 -0.0432422 0)
(10.02 0.00327837 0)
(10.1866 0.0798074 0)
(10.2033 0.131301 0)
(10.1289 0.12082 0)
(10.0768 0.0915045 0)
(10.0904 0.0796998 0)
(10.138 0.0806753 0)
(10.1734 0.0792522 0)
(10.1763 0.0726355 0)
(10.1523 0.0672029 0)
(10.111 0.0665068 0)
(10.0619 0.0726705 0)
(10.005 0.0804344 0)
(9.94802 0.0890034 0)
(9.88409 0.0970313 0)
(9.82117 0.102339 0)
(9.75146 0.120513 0)
(10.1575 0.086277 0)
(10.1576 0.0945319 0)
(10.1283 0.0778289 0)
(10.063 0.0856426 0)
(10.0169 0.0913876 0)
(9.98361 0.0788374 0)
(9.96644 0.0597933 0)
(9.97266 0.0467718 0)
(9.99545 0.0416806 0)
(10.0262 0.0420034 0)
(10.0615 0.0468472 0)
(10.0965 0.0554845 0)
(10.1275 0.0692128 0)
(10.1525 0.0854108 0)
(10.1754 0.102446 0)
(10.1967 0.115854 0)
(10.2182 0.127071 0)
(10.2436 0.146621 0)
(9.98109 0.0840706 0)
(10.0378 0.0736714 0)
(9.99525 0.0867925 0)
(10.0603 0.0890463 0)
(10.1611 0.0710174 0)
(10.1913 0.0592591 0)
(10.1441 0.0679767 0)
(10.0696 0.0800438 0)
(10.0087 0.0784858 0)
(9.97836 0.0653552 0)
(9.97974 0.0536613 0)
(10.0048 0.0514993 0)
(10.0423 0.059642 0)
(10.0838 0.0715259 0)
(10.1242 0.0811928 0)
(10.1612 0.0864219 0)
(10.1942 0.090318 0)
(10.2244 0.0993325 0)
(10.2186 -0.13237 0)
(10.1462 0.0372963 0)
(10.1323 0.0818749 0)
(10.1492 0.085635 0)
(10.1679 0.0925419 0)
(10.1448 0.0974052 0)
(10.1058 0.0918592 0)
(10.0858 0.0751474 0)
(10.0868 0.0531748 0)
(10.0958 0.0342057 0)
(10.1061 0.0241818 0)
(10.1192 0.0235253 0)
(10.1393 0.0303199 0)
(10.171 0.0414554 0)
(10.2125 0.0546296 0)
(10.2602 0.0685936 0)
(10.305 0.0832663 0)
(10.3442 0.0995786 0)
(9.95144 0.0526241 0)
(10.0303 0.101712 0)
(10.0386 0.0641613 0)
(10.014 0.0425595 0)
(10.0223 0.0552065 0)
(10.0411 0.0809577 0)
(10.0469 0.0972108 0)
(10.0414 0.0951644 0)
(10.0365 0.079454 0)
(10.0448 0.0606286 0)
(10.0722 0.0471862 0)
(10.1152 0.0414478 0)
(10.1618 0.0418451 0)
(10.2031 0.0459931 0)
(10.2306 0.0520224 0)
(10.2456 0.0598517 0)
(10.2447 0.0695391 0)
(10.2406 0.0828464 0)
(10.0502 0.0141809 0)
(10.1935 0.0817114 0)
(10.2007 0.134029 0)
(10.1558 0.108698 0)
(10.1399 0.0738597 0)
(10.157 0.0715491 0)
(10.2025 0.0873312 0)
(10.2478 0.0923074 0)
(10.2521 0.0745455 0)
(10.2016 0.0419571 0)
(10.1211 0.00969769 0)
(10.0485 -0.0105565 0)
(10.0074 -0.0141568 0)
(10.0024 -0.00230908 0)
(10.0227 0.019366 0)
(10.0551 0.0444707 0)
(10.0878 0.0681704 0)
(10.1146 0.0872573 0)
(10.2672 -0.128402 0)
(10.1697 0.0195711 0)
(10.0886 0.0935333 0)
(10.0058 0.10441 0)
(9.94953 0.0964041 0)
(9.91801 0.07926 0)
(9.91675 0.0605929 0)
(9.94503 0.0526228 0)
(9.98812 0.0599712 0)
(10.0332 0.0744675 0)
(10.076 0.0825333 0)
(10.1158 0.077413 0)
(10.1522 0.0623421 0)
(10.1846 0.0469202 0)
(10.2119 0.0389841 0)
(10.2309 0.0412598 0)
(10.2398 0.0534323 0)
(10.2362 0.0705294 0)
(9.90574 0.0522001 0)
(9.88073 0.138811 0)
(9.87847 0.137791 0)
(9.92352 0.0884823 0)
(9.99097 0.0583764 0)
(10.0377 0.0569084 0)
(10.0449 0.0700426 0)
(10.0266 0.079579 0)
(10.0139 0.0728899 0)
(10.0304 0.0479711 0)
(10.0761 0.012597 0)
(10.1328 -0.0201663 0)
(10.1796 -0.0385566 0)
(10.2046 -0.0369642 0)
(10.2088 -0.0164053 0)
(10.2002 0.0162828 0)
(10.1873 0.0535149 0)
(10.1813 0.0868235 0)
(10.0816 -0.013086 0)
(9.99061 0.111152 0)
(10.0241 0.112348 0)
(9.98815 0.0842235 0)
(9.93062 0.0741403 0)
(9.91454 0.0805411 0)
(9.94982 0.0826494 0)
(10.0068 0.066088 0)
(10.053 0.0347253 0)
(10.0737 0.00387137 0)
(10.0705 -0.0135107 0)
(10.0537 -0.0134732 0)
(10.0343 0.000248771 0)
(10.0224 0.0209071 0)
(10.0211 0.0414708 0)
(10.0324 0.0580622 0)
(10.0518 0.0691411 0)
(10.0786 0.0760003 0)
(10.069 0.0948856 0)
(10.1328 0.176908 0)
(10.137 0.176503 0)
(10.0962 0.152641 0)
(10.0376 0.0872514 0)
(10.0023 0.0214798 0)
(10.0135 -0.00297615 0)
(10.0626 0.0129955 0)
(10.1225 0.0415604 0)
(10.1696 0.056781 0)
(10.1939 0.0488309 0)
(10.1965 0.0241631 0)
(10.1844 -0.00252961 0)
(10.1664 -0.0180673 0)
(10.1496 -0.0155454 0)
(10.1386 0.00245562 0)
(10.133 0.0301768 0)
(10.1342 0.0585083 0)
(9.83249 -0.0888596 0)
(10.1095 0.0542325 0)
(10.2085 0.0997706 0)
(10.1573 0.14098 0)
(10.0996 0.146418 0)
(10.0624 0.11464 0)
(10.0348 0.06546 0)
(10.0227 0.0195143 0)
(10.0376 -0.0111289 0)
(10.0787 -0.0225111 0)
(10.1296 -0.0160241 0)
(10.1676 0.00313057 0)
(10.1753 0.0255466 0)
(10.1539 0.0432153 0)
(10.1128 0.0516812 0)
(10.0744 0.0526889 0)
(10.0445 0.0498827 0)
(10.0387 0.0474474 0)
(10.205 0.158313 0)
(10.0959 0.123667 0)
(9.95048 0.135995 0)
(9.96297 0.110731 0)
(10.0642 0.0607199 0)
(10.1394 0.0262249 0)
(10.1557 0.0161012 0)
(10.1475 0.0125951 0)
(10.1495 -0.00148455 0)
(10.1702 -0.0262897 0)
(10.2013 -0.0480558 0)
(10.2305 -0.0509831 0)
(10.2471 -0.0310304 0)
(10.2432 0.00471354 0)
(10.2177 0.043114 0)
(10.174 0.074641 0)
(10.1188 0.0956314 0)
(10.0625 0.103603 0)
(10.1137 -0.03993 0)
(10.1627 0.124949 0)
(10.1576 0.18473 0)
(10.163 0.16358 0)
(10.1622 0.134196 0)
(10.1654 0.0992141 0)
(10.2078 0.0531984 0)
(10.2912 0.00903883 0)
(10.3678 -0.0158377 0)
(10.3789 -0.0139154 0)
(10.3014 0.00971791 0)
(10.1612 0.0434358 0)
(10.0093 0.0750044 0)
(9.88725 0.0965661 0)
(9.81668 0.105474 0)
(9.79655 0.105385 0)
(9.82059 0.0976063 0)
(9.87243 0.0895634 0)
(9.90299 0.244501 0)
(9.8006 0.269257 0)
(9.72843 0.163498 0)
(9.71733 0.0707103 0)
(9.77226 0.0229629 0)
(9.83075 -0.0238185 0)
(9.86901 -0.0811797 0)
(9.90241 -0.11463 0)
(9.94429 -0.0931151 0)
(9.99346 -0.0213197 0)
(10.0418 0.0670132 0)
(10.0835 0.136635 0)
(10.1166 0.169313 0)
(10.1414 0.165723 0)
(10.157 0.137555 0)
(10.1638 0.0970072 0)
(10.1625 0.0545597 0)
(10.1527 0.0148692 0)
(10.1362 0.19381 0)
(10.1159 0.204888 0)
(10.1645 0.134805 0)
(10.1314 0.086578 0)
(10.1275 0.0627853 0)
(10.1427 0.0466534 0)
(10.1338 0.019113 0)
(10.1005 -0.0189654 0)
(10.0659 -0.0495788 0)
(10.0479 -0.0566207 0)
(10.0504 -0.0389714 0)
(10.0658 -0.00793949 0)
(10.0838 0.0226807 0)
(10.0954 0.0458353 0)
(10.1004 0.0623769 0)
(10.0998 0.0756365 0)
(10.0982 0.088255 0)
(10.0967 0.0994209 0)
(10.1345 0.242501 0)
(10.0186 0.365216 0)
(10.0008 0.226027 0)
(10.0622 0.0760403 0)
(10.1127 -0.00334141 0)
(10.1319 -0.0409721 0)
(10.1327 -0.0651769 0)
(10.1243 -0.0780266 0)
(10.1047 -0.0700337 0)
(10.0762 -0.0351255 0)
(10.0499 0.0215202 0)
(10.0347 0.0837305 0)
(10.0323 0.132598 0)
(10.039 0.155036 0)
(10.0522 0.14768 0)
(10.0695 0.11639 0)
(10.091 0.0699332 0)
(10.1139 0.0196034 0)
(9.8374 0.0990934 0)
(9.93518 0.185532 0)
(9.99874 0.110783 0)
(10.0377 0.0553229 0)
(10.0272 0.0338019 0)
(9.97394 0.0258802 0)
(9.91848 0.024124 0)
(9.88021 0.0249988 0)
(9.85568 0.0262059 0)
(9.84745 0.0261497 0)
(9.86579 0.0229235 0)
(9.91393 0.0151819 0)
(9.98285 0.00379951 0)
(10.058 -0.00791922 0)
(10.1256 -0.0142974 0)
(10.1776 -0.0131429 0)
(10.2105 -0.00289522 0)
(10.2252 0.0106271 0)
(9.88948 0.168685 0)
(9.81552 0.0624442 0)
(9.88273 -0.0462694 0)
(10.0146 -0.0226586 0)
(10.0955 0.0536367 0)
(10.1165 0.106058 0)
(10.1095 0.113739 0)
(10.0873 0.0828663 0)
(10.0522 0.0270282 0)
(10.0139 -0.0380142 0)
(9.98665 -0.0958297 0)
(9.97871 -0.132602 0)
(9.98786 -0.141935 0)
(10.0068 -0.125896 0)
(10.0278 -0.0941633 0)
(10.0467 -0.0596748 0)
(10.061 -0.032623 0)
(10.0719 -0.0216225 0)
(9.68974 -0.0856087 0)
(9.76239 -0.136897 0)
(9.74034 -0.140841 0)
(9.75384 -0.121198 0)
(9.80153 -0.0896435 0)
(9.85657 -0.0403163 0)
(9.91085 0.0210076 0)
(9.95972 0.0751884 0)
(9.98999 0.103173 0)
(9.99234 0.0947517 0)
(9.97331 0.0523232 0)
(9.95014 -0.00833803 0)
(9.9383 -0.0654067 0)
(9.94447 -0.101919 0)
(9.967 -0.110275 0)
(9.99798 -0.0964747 0)
(10.029 -0.0686053 0)
(10.051 -0.0406316 0)
(10.0722 -0.0312283 0)
(9.92049 -0.0123444 0)
(9.90394 -0.0586666 0)
(9.93014 -0.0901631 0)
(9.97592 -0.0752862 0)
(10.008 -0.036751 0)
(9.98864 0.00605716 0)
(9.9397 0.0424996 0)
(9.90714 0.0617619 0)
(9.90707 0.0527594 0)
(9.92617 0.0109459 0)
(9.94553 -0.0549249 0)
(9.95477 -0.125287 0)
(9.95272 -0.178523 0)
(9.94452 -0.19862 0)
(9.93697 -0.18357 0)
(9.93429 -0.139272 0)
(9.93961 -0.080663 0)
(10.2988 -0.0963394 0)
(10.1493 -0.0602485 0)
(10.0749 -0.155885 0)
(10.0154 -0.218393 0)
(9.94828 -0.16484 0)
(9.93205 -0.041802 0)
(9.97443 0.0682391 0)
(10.0424 0.115009 0)
(10.1056 0.0996662 0)
(10.1445 0.0536442 0)
(10.1509 0.00662963 0)
(10.1291 -0.0283316 0)
(10.0898 -0.0516564 0)
(10.0428 -0.0671229 0)
(9.99721 -0.076173 0)
(9.96 -0.0799044 0)
(9.93641 -0.0788014 0)
(9.92833 -0.0759856 0)
(10.1043 0.0558782 0)
(10.2538 0.052931 0)
(10.2092 0.0583006 0)
(10.0647 0.0203152 0)
(9.92349 -0.0394814 0)
(9.90328 -0.0853608 0)
(9.98263 -0.0894457 0)
(10.0718 -0.0573303 0)
(10.1198 -0.0177299 0)
(10.1281 0.00483199 0)
(10.1211 0.00187413 0)
(10.1209 -0.0217715 0)
(10.1366 -0.0543145 0)
(10.1644 -0.0834133 0)
(10.1947 -0.0993277 0)
(10.2174 -0.100653 0)
(10.2279 -0.0889806 0)
(10.2238 -0.0718779 0)
(9.99615 0.00898013 0)
(9.92033 -0.0892047 0)
(9.97107 -0.0146549 0)
(10.0458 0.0136599 0)
(10.0442 -0.0320759 0)
(10.0039 -0.0826509 0)
(9.97451 -0.0850362 0)
(9.96862 -0.0375443 0)
(9.9836 0.0222774 0)
(10.0108 0.0539913 0)
(10.0354 0.0415887 0)
(10.0434 -0.0042806 0)
(10.0313 -0.0599554 0)
(10.0058 -0.103641 0)
(9.97918 -0.123058 0)
(9.96203 -0.118418 0)
(9.95861 -0.0959113 0)
(9.97138 -0.0665526 0)
(10.0769 -0.0195271 0)
(9.96391 -0.033805 0)
(9.93208 0.019842 0)
(9.93196 0.0248718 0)
(9.92414 -0.0127684 0)
(9.92485 -0.046654 0)
(9.93282 -0.056885 0)
(9.944 -0.050416 0)
(9.96442 -0.0417982 0)
(9.99302 -0.0383105 0)
(10.0156 -0.038176 0)
(10.0188 -0.0385239 0)
(10.0028 -0.0403537 0)
(9.97786 -0.0463677 0)
(9.95747 -0.056365 0)
(9.94828 -0.0675883 0)
(9.95335 -0.0765808 0)
(9.96873 -0.0810925 0)
(9.89385 -0.0633396 0)
(9.88119 0.0183405 0)
(9.95431 0.0236561 0)
(10.0784 -0.00373436 0)
(10.1266 -0.0493577 0)
(10.1103 -0.0844529 0)
(10.0807 -0.0895044 0)
(10.0547 -0.065554 0)
(10.028 -0.0282613 0)
(9.99807 0.00343355 0)
(9.96896 0.0158812 0)
(9.94811 0.00409742 0)
(9.94203 -0.0278141 0)
(9.95211 -0.0700359 0)
(9.97539 -0.110032 0)
(10.0068 -0.13804 0)
(10.0418 -0.149536 0)
(10.0777 -0.142893 0)
(10.1007 -0.0497969 0)
(9.98399 -0.128848 0)
(9.90728 -0.0766261 0)
(9.87725 -0.0361765 0)
(9.87601 -0.0348684 0)
(9.90496 -0.0478267 0)
(9.94984 -0.0487171 0)
(9.99578 -0.0325322 0)
(10.041 -0.0100038 0)
(10.0855 0.00652475 0)
(10.1224 0.0103168 0)
(10.1424 0.0005497 0)
(10.14 -0.0194626 0)
(10.1158 -0.044732 0)
(10.0747 -0.0698356 0)
(10.0259 -0.0900863 0)
(9.97758 -0.103344 0)
(9.93909 -0.107319 0)
(9.90502 -0.0279054 0)
(9.76116 0.0450854 0)
(9.76705 0.0391371 0)
(9.88343 -0.0148233 0)
(10.0017 -0.059721 0)
(10.0699 -0.0816517 0)
(10.0765 -0.0845794 0)
(10.034 -0.0740144 0)
(9.97565 -0.0557395 0)
(9.93434 -0.0380452 0)
(9.9224 -0.0290764 0)
(9.9332 -0.0326279 0)
(9.95461 -0.0468583 0)
(9.977 -0.0674412 0)
(9.99475 -0.089247 0)
(10.0059 -0.107784 0)
(10.0115 -0.12024 0)
(10.0125 -0.12352 0)
(9.79418 -0.0112602 0)
(9.98439 -0.0198011 0)
(10.1873 -0.0447186 0)
(10.2647 -0.0854338 0)
(10.2313 -0.115048 0)
(10.1544 -0.11145 0)
(10.0841 -0.0775634 0)
(10.0473 -0.0339113 0)
(10.0583 0.000593861 0)
(10.1123 0.0176311 0)
(10.1851 0.0182322 0)
(10.2478 0.00766004 0)
(10.2821 -0.00877423 0)
(10.2843 -0.0276956 0)
(10.2599 -0.047145 0)
(10.2196 -0.0651613 0)
(10.1711 -0.0800135 0)
(10.1226 -0.0893181 0)
(10.1063 -0.0676741 0)
(9.79764 -0.112109 0)
(9.57914 -0.073782 0)
(9.38422 -0.0503651 0)
(9.14612 -0.0380179 0)
(8.91778 -0.0268149 0)
(8.74386 -0.0224998 0)
(8.62074 -0.0314683 0)
(8.52667 -0.0506155 0)
(8.44177 -0.0699478 0)
(8.35351 -0.0808628 0)
(8.25869 -0.0816805 0)
(8.15817 -0.0767877 0)
(8.05172 -0.0722913 0)
(7.93307 -0.0713595 0)
(7.8005 -0.0730281 0)
(7.65286 -0.0741128 0)
(7.50213 -0.0713619 0)
(0.0195736 -0.0526189 7.47484e-20)
(0.0615541 -0.073177 -7.42009e-20)
(0.0885456 -0.0563493 0)
(0.0958396 -0.0478475 0)
(0.0760513 -0.0544888 0)
(0.0306906 0.0140772 7.20245e-20)
(-0.0949262 0.117168 0)
(-0.226522 0.0933073 0)
(-0.294194 0.0512663 0)
(-0.344451 0.0278554 0)
(-0.368777 0.00189035 -6.92534e-20)
(-0.373839 -0.0180963 0)
(-0.36417 -0.0341892 0)
(-0.34244 -0.046882 0)
(-0.311629 -0.0586558 0)
(-0.271551 -0.0702749 -6.66197e-20)
(-0.221683 -0.0807954 0)
(-0.162065 -0.0885202 0)
(-0.0942753 -0.0933571 0)
(-0.0200207 -0.0965093 0)
(0.0602755 -0.0991273 0)
(0.146364 -0.101127 0)
(0.237318 -0.102604 0)
(0.332848 -0.104649 -6.24543e-20)
(0.433604 -0.10789 6.19255e-20)
(0.540591 -0.111996 -6.1398e-20)
(0.654121 -0.115727 -6.0872e-20)
(0.772799 -0.117856 0)
(0.893817 -0.116972 0)
(1.01255 -0.111644 5.9306e-20)
(1.12273 -0.101995 5.87901e-20)
(1.21924 -0.0884218 0)
(1.2999 -0.0713584 0)
(1.36436 -0.054477 5.72698e-20)
(1.41403 -0.0412858 0)
(1.45131 -0.0320184 0)
(1.48079 -0.0300108 -5.57934e-20)
(1.511 -0.0378084 0)
(1.55034 -0.0501195 -5.48258e-20)
(1.60545 -0.0611883 -1.08691e-19)
(1.67292 -0.0679284 0)
(1.74014 -0.0485019 0)
(1.7879 0.0117766 0)
(1.75172 0.0982978 0)
(1.57035 0.246371 0)
(1.29859 0.314733 -1.03272e-19)
(1.0914 0.111339 -1.02448e-19)
(0.996721 -0.0337258 -1.01611e-19)
(0.780289 0.106072 0)
(0.457389 0.23377 9.98879e-20)
(0.540322 0.137626 0)
(0.67886 -0.133359 -9.79778e-20)
(1.07476 -0.652454 -9.70139e-20)
(1.39261 -0.447756 0)
(0.643479 0.415244 0)
(-0.476028 0.691701 0)
(-1.31558 0.63083 -9.29333e-20)
(-2.10619 0.567057 0)
(-2.84417 0.528133 0)
(-3.55388 0.495394 0)
(-4.23163 0.470978 0)
(-4.88967 0.452486 0)
(-5.53342 0.44161 0)
(-6.16917 0.433425 0)
(-6.79533 0.423155 0)
(-7.40502 0.405722 7.92498e-20)
(-7.98547 0.378588 0)
(-8.52131 0.340916 0)
(-8.99663 0.293708 -7.49634e-20)
(-9.39726 0.239081 -7.37179e-20)
(-9.71222 0.180035 0)
(-9.93467 0.120354 7.16174e-20)
(-10.0619 0.064028 -7.07778e-20)
(-10.0942 0.013879 0)
(-10.0392 -0.0300798 6.94884e-20)
(-9.91843 -0.0691017 0)
(-9.73098 -0.102747 0)
(-9.49041 -0.131258 -6.83413e-20)
(-9.2009 -0.155498 0)
(-8.87009 -0.175723 6.79243e-20)
(-8.50219 -0.192846 0)
(-8.10149 -0.207374 -6.76674e-20)
(-7.67093 -0.21971 -6.75751e-20)
(-7.21348 -0.230023 -6.74954e-20)
(-6.7319 -0.238298 -1.34838e-19)
(-6.22947 -0.244322 1.34674e-19)
(-5.71002 -0.247834 0)
(-5.1781 -0.248541 0)
(-4.63869 -0.246238 0)
(-4.0968 -0.2409 1.33527e-19)
(-3.55701 -0.232853 1.33043e-19)
(-3.02349 -0.22285 -1.32462e-19)
(-2.50046 -0.211899 0)
(-1.99255 -0.200682 1.31004e-19)
(-1.50403 -0.188996 1.30133e-19)
(-1.03702 -0.175899 1.29175e-19)
(-0.590929 -0.160923 0)
(-0.165267 -0.144442 0)
(0.235515 -0.126928 0)
(0.602045 -0.109213 1.24432e-19)
(0.924513 -0.0944706 0)
(1.19817 -0.0881517 0)
(1.42727 -0.0938451 -1.20268e-19)
(1.62525 -0.109156 0)
(1.81007 -0.126789 0)
(1.99604 -0.139313 -1.16032e-19)
(2.18688 -0.143006 0)
(2.37632 -0.139178 0)
(2.55667 -0.132154 1.11782e-19)
(2.72758 -0.127203 1.10378e-19)
(2.89823 -0.133946 0)
(3.09044 -0.156039 -1.07601e-19)
(3.33078 -0.162214 0)
(3.60347 -0.130421 1.04834e-19)
(3.85584 -0.135372 0)
(4.12139 -0.198067 1.02026e-19)
(4.44683 -0.153085 1.00619e-19)
(4.67379 -0.0479438 0)
(4.7736 -0.0899281 0)
(4.83294 0.0498776 0)
(4.40092 0.459753 0)
(3.35547 0.435713 0)
(2.42692 -0.016991 0)
(1.96065 -0.335039 0)
(1.96043 -0.444535 9.02585e-20)
(2.41579 -0.428028 -8.92181e-20)
(3.0878 -0.309324 0)
(3.62837 -0.165703 0)
(3.89046 -0.0653983 0)
(3.93027 -0.00565066 0)
(3.82525 0.0428496 -1.65223e-19)
(3.58122 0.0838575 0)
(3.18024 0.105367 1.59758e-19)
(2.60904 0.144462 -1.56974e-19)
(1.79333 0.249291 0)
(0.714797 0.352546 0)
(-0.415224 0.374153 0)
(-1.46732 0.357316 1.43695e-19)
(-2.48079 0.343912 1.39342e-19)
(-3.4785 0.33767 0)
(-4.47014 0.334042 1.2998e-19)
(-5.45393 0.328146 1.25044e-19)
(-6.41782 0.316696 -1.2001e-19)
(-7.34189 0.297745 0)
(-8.20172 0.270713 0)
(-8.97155 0.236058 -1.05479e-19)
(-9.6266 0.195139 0)
(-10.1454 0.149528 0)
(-10.5104 0.100012 0)
(-10.7048 0.0483522 0)
(-10.7141 -0.00319965 9.24573e-20)
(-10.5458 -0.0557644 9.25341e-20)
(-10.1868 -0.10954 0)
(-9.63618 -0.162433 9.53804e-20)
(-8.89792 -0.212334 0)
(-7.98889 -0.255553 0)
(-6.938 -0.288591 1.03494e-19)
(-5.78365 -0.308974 0)
(-4.56864 -0.315957 1.08009e-19)
(-3.33454 -0.310624 0)
(-2.11764 -0.295248 0)
(-0.946654 -0.272524 1.09476e-19)
(0.155901 -0.244926 0)
(1.1704 -0.21517 1.06834e-19)
(2.08314 -0.184481 0)
(2.88325 -0.154583 0)
(3.56767 -0.128861 0)
(4.14179 -0.106496 -9.74704e-20)
(4.60849 -0.0774007 0)
(4.94736 -0.0221451 9.25694e-20)
(5.05862 0.0597473 0)
(4.88469 0.121436 0)
(4.50245 0.11484 0)
(4.08762 0.049903 0)
(3.77581 -0.0223828 0)
(3.58896 -0.0554994 0)
(3.4976 0.00496574 0)
(3.22228 0.0854164 -1.52713e-19)
(2.86278 0.0469021 0)
(2.5517 -0.0598567 0)
(0.0165642 -0.130073 -2.24294e-19)
(0.0306775 -0.134792 2.22693e-19)
(0.026981 -0.041054 0)
(-0.0207739 0.101998 -1.46285e-19)
(-0.0974149 0.206377 0)
(-0.155524 0.261124 -7.19915e-20)
(-0.221797 0.264152 1.42895e-19)
(-0.271415 0.200927 1.41788e-19)
(-0.293198 0.141633 0)
(-0.316206 0.0848891 1.39605e-19)
(-0.326909 0.0291643 6.92594e-20)
(-0.33361 -0.0185949 0)
(-0.329519 -0.0602988 0)
(-0.314659 -0.0973876 0)
(-0.286357 -0.131568 0)
(-0.244989 -0.162705 6.66194e-20)
(-0.190908 -0.189376 0)
(-0.126048 -0.210002 -1.3119e-19)
(-0.0533251 -0.225397 0)
(0.0235747 -0.237585 0)
(0.101961 -0.248323 1.28066e-19)
(0.181064 -0.257617 0)
(0.261234 -0.265909 -1.2594e-19)
(0.343052 -0.275036 6.2441e-20)
(0.427516 -0.286921 -6.19145e-20)
(0.516611 -0.301118 6.13891e-20)
(0.612409 -0.314327 6.0865e-20)
(0.715516 -0.322743 0)
(0.825057 -0.321936 0)
(0.938538 -0.307346 -5.93033e-20)
(1.05004 -0.278928 5.87876e-20)
(1.15119 -0.241939 0)
(1.23541 -0.201277 0)
(1.29602 -0.157553 -5.72762e-20)
(1.32903 -0.111983 0)
(1.34087 -0.0740575 0)
(1.34917 -0.0591161 5.58107e-20)
(1.37143 -0.0719497 0)
(1.41613 -0.108709 -5.48252e-20)
(1.49128 -0.153976 1.08705e-19)
(1.6012 -0.167293 0)
(1.71502 -0.141315 0)
(1.79746 -0.0656158 2.11675e-19)
(1.86549 0.141739 2.09801e-19)
(1.9367 0.371855 2.07919e-19)
(1.95644 0.421499 -1.03025e-19)
(1.80284 0.343127 1.02258e-19)
(1.48303 0.366172 3.04338e-19)
(1.09084 0.664611 -2.01283e-19)
(1.11221 0.573876 -9.97491e-20)
(1.78099 -0.360553 0)
(1.5092 -0.497614 9.79688e-20)
(-0.122218 0.768816 -9.71325e-20)
(-1.26385 1.39551 0)
(-2.24473 1.62741 0)
(-3.03953 1.60259 0)
(-3.71085 1.51051 9.23465e-20)
(-4.33235 1.4075 0)
(-4.91949 1.32252 -1.78509e-19)
(-5.47502 1.24969 0)
(-6.01536 1.19607 -1.72646e-19)
(-6.54174 1.15711 0)
(-7.06167 1.12895 1.66585e-19)
(-7.57112 1.10208 0)
(-8.06744 1.06703 -1.60446e-19)
(-8.54213 1.01477 7.8398e-20)
(-8.98722 0.939684 0)
(-9.39187 0.840161 1.51611e-19)
(-9.74493 0.718056 7.48152e-20)
(-10.0352 0.577693 7.35972e-20)
(-10.2541 0.425302 0)
(-10.3966 0.268403 7.09357e-20)
(-10.4629 0.114741 7.07246e-20)
(-10.4573 -0.0290816 0)
(-10.3829 -0.15932 -6.94387e-20)
(-10.2332 -0.274709 1.37529e-19)
(-10.0257 -0.374313 0)
(-9.76336 -0.459024 6.82806e-20)
(-9.45666 -0.53073 0)
(-9.11011 -0.591523 -2.03294e-19)
(-8.72907 -0.643751 0)
(-8.31656 -0.689302 2.02533e-19)
(-7.8753 -0.729505 6.75057e-20)
(-7.4073 -0.764965 -6.71778e-20)
(-6.91492 -0.795624 -1.34226e-19)
(-6.40087 -0.820893 1.34091e-19)
(-5.86873 -0.839891 0)
(-5.32289 -0.851657 0)
(-4.7685 -0.855375 0)
(-4.21111 -0.850565 -3.99896e-19)
(-3.65623 -0.837313 -1.32915e-19)
(-3.10897 -0.816544 1.32341e-19)
(-2.57395 -0.790068 0)
(-2.05541 -0.76 1.30732e-19)
(-1.55726 -0.727738 -1.30034e-19)
(-1.08249 -0.69331 -1.29083e-19)
(-0.631806 -0.655866 0)
(-0.202659 -0.613845 0)
(0.208988 -0.564627 0)
(0.604625 -0.505137 -1.24372e-19)
(0.981443 -0.434733 0)
(1.33288 -0.358713 2.43156e-19)
(1.65197 -0.288881 3.60541e-19)
(1.93703 -0.238799 -2.37522e-19)
(2.19531 -0.214824 0)
(2.43849 -0.210143 -1.15907e-19)
(2.67229 -0.209443 0)
(2.89052 -0.201721 -2.26155e-19)
(3.07954 -0.189263 1.11649e-19)
(3.2347 -0.182301 1.1025e-19)
(3.37407 -0.189892 0)
(3.52158 -0.224023 3.22522e-19)
(3.69627 -0.284063 -2.12241e-19)
(3.94155 -0.321572 -1.04753e-19)
(4.2679 -0.306787 0)
(4.56878 -0.30824 -1.0194e-19)
(4.82276 -0.322276 -3.01536e-19)
(5.15677 -0.232039 0)
(5.47096 -0.0962889 -1.95314e-19)
(5.6377 0.0673884 -1.92539e-19)
(5.70821 0.457235 -1.89851e-19)
(5.6181 0.913195 0)
(5.20361 1.04786 0)
(4.44727 0.640998 0)
(3.80853 -0.0919635 9.02817e-20)
(3.62657 -0.593057 8.9057e-20)
(3.7795 -0.629368 0)
(3.92644 -0.384865 1.73456e-19)
(3.82324 -0.105522 1.70765e-19)
(3.4891 0.10258 0)
(3.02273 0.256088 1.65297e-19)
(2.44423 0.412736 3.25069e-19)
(1.68407 0.606377 -1.59906e-19)
(0.675949 0.817922 -1.56905e-19)
(-0.502652 0.979566 0)
(-1.64108 1.03606 0)
(-2.63092 1.00902 0)
(-3.52765 0.960982 -1.43234e-19)
(-4.37471 0.923177 1.38227e-19)
(-5.19003 0.897616 2.68118e-19)
(-5.98352 0.876738 -1.29662e-19)
(-6.75664 0.851416 1.24087e-19)
(-7.50428 0.81428 1.19781e-19)
(-8.21503 0.760261 0)
(-8.87264 0.686836 0)
(-9.45812 0.593705 -1.04448e-19)
(-9.95227 0.482522 0)
(-10.3373 0.356224 0)
(-10.598 0.217718 1.89294e-19)
(-10.7232 0.0705173 0)
(-10.7019 -0.0818482 9.1484e-20)
(-10.5029 -0.239279 -9.25189e-20)
(-10.1198 -0.400585 0)
(-9.54404 -0.561073 9.44089e-20)
(-8.78059 -0.713108 0)
(-7.84552 -0.845857 0)
(-6.76826 -0.94851 -1.03407e-19)
(-5.58861 -1.01336 2.11321e-19)
(-4.35095 -1.03803 -1.07911e-19)
(-3.09806 -1.02567 0)
(-1.86657 -0.98321 0)
(-0.684568 -0.918904 1.09085e-19)
(0.426821 -0.840564 0)
(1.45099 -0.755357 1.06465e-19)
(2.37768 -0.666708 0)
(3.20319 -0.576125 0)
(3.92717 -0.485947 0)
(4.54864 -0.398677 9.73992e-20)
(5.0511 -0.312207 0)
(5.43918 -0.208021 -9.25118e-20)
(5.76694 -0.0643231 0)
(6.0161 0.100094 0)
(6.11234 0.232025 1.71489e-19)
(6.02145 0.280424 -1.67321e-19)
(5.74872 0.255422 0)
(5.34206 0.195539 0)
(4.93112 0.151018 0)
(4.57245 0.187666 4.57431e-19)
(4.34712 0.267888 0)
(4.04188 0.226887 -2.89755e-19)
(0.0029439 -0.119288 -7.83354e-23)
(-0.025642 -0.0326726 -2.97029e-19)
(-0.0622009 0.10308 0)
(-0.0944032 0.225777 2.92501e-19)
(-0.127545 0.309524 0)
(-0.14273 0.337507 0)
(-0.151641 0.314007 6.10936e-23)
(-0.153573 0.250704 -1.41807e-19)
(-0.158439 0.185726 -1.40778e-19)
(-0.168776 0.117179 -1.39663e-19)
(-0.174861 0.0473877 0)
(-0.17705 -0.0191795 0)
(-0.169426 -0.0837395 1.36516e-19)
(-0.149721 -0.146929 2.70882e-19)
(-0.117149 -0.206778 -2.68755e-19)
(-0.0704164 -0.26053 0)
(-0.0101724 -0.304624 -2.64557e-19)
(0.060771 -0.3367 1.31189e-19)
(0.138302 -0.357295 0)
(0.217481 -0.369831 -2.58125e-19)
(0.293926 -0.377778 -1.27976e-19)
(0.365539 -0.382892 2.5386e-19)
(0.432516 -0.387369 1.2586e-19)
(0.496033 -0.394508 0)
(0.557649 -0.407445 -2.47527e-19)
(0.618892 -0.426681 -2.45432e-19)
(0.681485 -0.44814 0)
(0.747344 -0.465408 -2.41277e-19)
(0.817601 -0.471375 0)
(0.892319 -0.456651 -2.37179e-19)
(0.970293 -0.414895 -1.17573e-19)
(1.04679 -0.349167 0)
(1.11523 -0.269577 0)
(1.17028 -0.191667 0)
(1.21348 -0.132983 0)
(1.24953 -0.111468 0)
(1.28163 -0.132265 0)
(1.3193 -0.185086 -2.21268e-19)
(1.37592 -0.259612 3.28936e-19)
(1.45148 -0.341581 0)
(1.53656 -0.382218 0)
(1.63803 -0.310921 0)
(1.74849 -0.167627 -9.33812e-23)
(1.80977 -0.0114579 -2.09855e-19)
(1.78962 0.226384 -4.15838e-19)
(1.73523 0.527346 4.12229e-19)
(1.61047 0.851327 2.04369e-19)
(1.3989 1.09504 -2.0279e-19)
(1.54971 0.63666 -4.64357e-23)
(1.84419 -0.302548 -1.9967e-19)
(0.783229 0.326895 0)
(-0.840331 1.68662 -1.95881e-19)
(-2.05026 2.38549 3.42065e-22)
(-2.84248 2.5252 0)
(-3.46043 2.52429 0)
(-3.91754 2.40948 1.85248e-19)
(-4.35719 2.27002 0)
(-4.75684 2.12769 0)
(-5.17479 2.00884 -1.76423e-19)
(-5.59215 1.91606 -3.49058e-19)
(-6.03412 1.85153 1.72473e-19)
(-6.49028 1.80838 0)
(-6.96928 1.77565 -1.66456e-19)
(-7.46348 1.73958 0)
(-7.97141 1.6872 -1.58589e-19)
(-8.483 1.60873 -1.57287e-19)
(-8.98447 1.49759 3.06672e-19)
(-9.4537 1.3492 1.4941e-19)
(-9.8672 1.16224 0)
(-10.2037 0.940871 -2.90671e-19)
(-10.4487 0.694595 0)
(-10.5956 0.43578 -4.25227e-19)
(-10.6452 0.177535 -2.79847e-19)
(-10.6044 -0.0677039 -2.77351e-19)
(-10.4838 -0.289696 2.75273e-19)
(-10.2957 -0.48255 -4.11088e-19)
(-10.0522 -0.645975 0)
(-9.76337 -0.782462 0)
(-9.43755 -0.896108 2.70446e-19)
(-9.08037 -0.991811 4.05134e-19)
(-8.69556 -1.0738 0)
(-8.28515 -1.1456 -1.34844e-19)
(-7.85013 -1.20942 0)
(-7.39117 -1.2661 4.02674e-19)
(-6.9092 -1.31519 7.86897e-22)
(-6.4059 -1.35533 -7.38307e-22)
(-5.88395 -1.38468 -2.67348e-19)
(-5.34704 -1.40142 0)
(-4.7997 -1.40428 2.66442e-19)
(-4.24681 -1.39287 4.83327e-22)
(-3.69335 -1.36768 0)
(-3.14424 -1.32992 0)
(-2.60432 -1.28154 0)
(-2.07849 -1.22529 -2.61415e-19)
(-1.57199 -1.16449 0)
(-1.09051 -1.10229 0)
(-0.639508 -1.04061 0)
(-0.222213 -0.979217 0)
(0.162881 -0.915166 0)
(0.520689 -0.844286 -2.48446e-19)
(0.854949 -0.764828 0)
(1.1646 -0.682112 -2.43107e-19)
(1.44719 -0.608919 -2.40322e-19)
(1.70736 -0.559082 2.37511e-19)
(1.95832 -0.536222 0)
(2.21006 -0.526223 2.31836e-19)
(2.45513 -0.505177 0)
(2.66931 -0.458088 2.26168e-19)
(2.82666 -0.392388 -2.2337e-19)
(2.92171 -0.339691 -6.61699e-19)
(2.99365 -0.337919 0)
(3.10931 -0.398971 -6.45083e-19)
(3.30023 -0.495874 -2.12139e-19)
(3.54754 -0.575699 0)
(3.8319 -0.603583 -4.13205e-19)
(4.13009 -0.616675 -4.07542e-19)
(4.42453 -0.627251 6.02833e-19)
(4.78794 -0.524312 0)
(5.20292 -0.305419 1.95316e-19)
(5.46929 -0.0674349 1.92574e-19)
(5.65405 0.336031 5.68654e-19)
(5.90143 0.970954 0)
(5.87513 1.40759 0)
(5.38401 1.15841 0)
(4.76622 0.356541 1.8084e-19)
(4.21104 -0.306675 0)
(3.7294 -0.393951 0)
(3.23541 -0.0913805 -1.7359e-19)
(2.64761 0.257051 -1.70918e-19)
(2.00755 0.514365 0)
(1.35377 0.725617 0)
(0.652296 0.970049 -3.2552e-19)
(-0.146843 1.25383 0)
(-1.01945 1.50202 3.13791e-19)
(-1.84787 1.63113 3.06648e-19)
(-2.55379 1.6273 0)
(-3.18589 1.5527 0)
(-3.8047 1.4727 -2.84377e-19)
(-4.4282 1.41296 -9.59059e-22)
(-5.06672 1.37335 -9.10363e-22)
(-5.72578 1.34359 0)
(-6.40626 1.31099 -4.96559e-19)
(-7.10205 1.2637 0)
(-7.79724 1.19205 0)
(-8.46699 1.08942 0)
(-9.08168 0.952769 2.09775e-19)
(-9.61144 0.783001 0)
(-10.0297 0.584598 -3.86245e-19)
(-10.315 0.364049 -1.89311e-19)
(-10.4502 0.126621 0)
(-10.4218 -0.124292 -1.83964e-19)
(-10.2174 -0.385537 0)
(-9.82642 -0.653932 0)
(-9.24215 -0.922548 -5.65979e-19)
(-8.46716 -1.17756 3.86336e-19)
(-7.51734 -1.40043 0)
(-6.4234 -1.57223 4.09783e-19)
(-5.22764 -1.67969 -2.11146e-19)
(-3.97725 -1.71905 0)
(-2.71719 -1.69604 0)
(-1.48522 -1.62273 0)
(-0.310122 -1.51336 -6.53747e-19)
(0.786669 -1.38194 0)
(1.78827 -1.23992 -2.12946e-19)
(2.68226 -1.09447 0)
(3.46336 -0.949974 0)
(4.13168 -0.809591 0)
(4.70262 -0.668735 0)
(5.19236 -0.516101 0)
(5.59993 -0.354821 0)
(5.91811 -0.186089 -3.60031e-19)
(6.16665 0.00151583 0)
(6.3606 0.184361 -1.71458e-19)
(6.44049 0.298683 5.01544e-19)
(6.33924 0.33843 0)
(6.05981 0.336372 0)
(5.6271 0.328076 -3.11786e-19)
(5.12266 0.362351 -3.04691e-19)
(4.75009 0.393507 2.96921e-19)
(4.40273 0.319078 2.89589e-19)
(0.00665054 -0.0921376 4.49039e-19)
(0.00727108 -0.0163633 4.45883e-19)
(-0.000742948 0.106557 2.95099e-19)
(-0.00569692 0.218363 1.46536e-19)
(-0.000670662 0.28997 0)
(0.0163872 0.314202 -2.88439e-19)
(0.035646 0.296407 1.43217e-19)
(0.053793 0.246022 0)
(0.0622054 0.186255 1.40854e-19)
(0.0690423 0.118154 0)
(0.081567 0.0436219 -2.77565e-19)
(0.0986798 -0.033077 0)
(0.122229 -0.113318 -1.3653e-19)
(0.1522 -0.197457 -2.70867e-19)
(0.188233 -0.282181 2.68679e-19)
(0.232479 -0.361807 0)
(0.287045 -0.428796 2.64325e-19)
(0.352573 -0.476603 0)
(0.42777 -0.50192 0)
(0.509339 -0.507699 2.57855e-19)
(0.59273 -0.500693 0)
(0.6742 -0.487775 4.79997e-23)
(0.752125 -0.474962 0)
(0.826117 -0.467677 0)
(0.895499 -0.46968 -1.87952e-23)
(0.959193 -0.481768 2.45177e-19)
(1.01561 -0.500673 2.43107e-19)
(1.06459 -0.519642 2.41048e-19)
(1.10668 -0.531381 0)
(1.14333 -0.529256 4.73996e-19)
(1.17956 -0.505732 0)
(1.22086 -0.453532 2.3303e-19)
(1.27132 -0.376679 0)
(1.33324 -0.289894 0)
(1.40629 -0.207676 -2.27086e-19)
(1.4884 -0.158593 0)
(1.56709 -0.167353 2.23096e-19)
(1.62238 -0.240788 -1.21096e-24)
(1.66076 -0.357891 -4.38185e-19)
(1.70668 -0.458283 4.34163e-19)
(1.75488 -0.501924 0)
(1.78279 -0.47616 0)
(1.77953 -0.292175 2.112e-19)
(1.76163 0.082256 0)
(1.74346 0.48794 2.0782e-19)
(1.7018 0.805358 -2.06007e-19)
(1.66568 0.926281 -2.04282e-19)
(1.7934 0.575007 0)
(1.69676 0.270314 2.01161e-19)
(0.522437 1.1608 1.99652e-19)
(-1.07491 2.51374 -3.9424e-19)
(-2.22172 3.27185 1.94862e-19)
(-2.89404 3.40664 1.92382e-19)
(-3.35785 3.31143 0)
(-3.72904 3.1619 0)
(-4.04271 2.97297 -1.85068e-19)
(-4.36502 2.80157 0)
(-4.68279 2.65399 0)
(-5.03573 2.54332 3.54488e-19)
(-5.41201 2.46892 3.48901e-19)
(-5.83238 2.42763 0)
(-6.29309 2.41109 0)
(-6.80224 2.40593 0)
(-7.35647 2.39685 0)
(-7.95008 2.36778 3.18606e-19)
(-8.55917 2.2978 -3.0978e-19)
(-9.1467 2.16305 -3.06301e-19)
(-9.67 1.94795 -5.9806e-19)
(-10.0944 1.65449 0)
(-10.3995 1.29981 3.0986e-21)
(-10.5792 0.908826 0)
(-10.6382 0.508278 2.82772e-19)
(-10.5882 0.123003 2.52399e-21)
(-10.4453 -0.227852 2.77357e-19)
(-10.2295 -0.532817 -2.75288e-19)
(-9.96038 -0.788797 1.69443e-21)
(-9.65346 -0.998635 0)
(-9.32044 -1.16923 -2.69958e-19)
(-8.96823 -1.3092 -2.70489e-19)
(-8.60058 -1.42659 -5.38419e-19)
(-8.2185 -1.52837 0)
(-7.82126 -1.61968 2.67666e-19)
(-7.4072 -1.70357 0)
(-6.97464 -1.78082 -5.35198e-19)
(-6.52275 -1.85026 2.6787e-19)
(-6.05207 -1.90936 -2.67586e-19)
(-5.56477 -1.95493 2.67259e-19)
(-5.06459 -1.98374 5.32048e-19)