/*--------------------------------*- C++ -*----------------------------------*\
  =========                 |
  \\      /  F ield         | OpenFOAM: The Open Source CFD Toolbox
   \\    /   O peration     | Website:  https://openfoam.org
    \\  /    A nd           | Version:  6
     \\/     M anipulation  |
\*---------------------------------------------------------------------------*/
FoamFile
{
    version     2.0;
    format      ascii;
    class       volVectorField;
    location    "0.2";
    object      UMean;
}
// * * * * * * * * * * * * * * * * * * * * * * * * * * * * * * * * * * * * * //

dimensions      [0 1 -1 0 0 0 0];

internalField   nonuniform List<vector> 
12225
(
(9.83414 0.0199486 0)
(9.53785 0.0334684 0)
(9.2438 0.0362765 0)
(8.9458 0.0375042 0)
(8.65115 0.038711 0)
(8.36603 0.0396897 0)
(8.09285 0.0400923 0)
(7.83091 0.0403122 0)
(7.57948 0.0401196 0)
(7.33667 0.040327 0)
(7.10271 0.0399687 0)
(6.8747 0.0407551 0)
(6.65431 0.0403281 0)
(6.43522 0.0426263 0)
(6.22238 0.0424405 0)
(6.00132 0.0481093 0)
(5.78667 0.0491714 0)
(5.53946 0.0542099 0)
(10.0097 0.0406375 0)
(10.0743 0.0690043 0)
(10.1182 0.0741487 0)
(10.1357 0.0761427 0)
(10.1345 0.0790155 0)
(10.1223 0.081857 0)
(10.1024 0.0841747 0)
(10.076 0.0858649 0)
(10.0434 0.087555 0)
(10.0051 0.0889946 0)
(9.96119 0.0910246 0)
(9.91278 0.0927617 0)
(9.85904 0.0958805 0)
(9.80107 0.098637 0)
(9.73718 0.104285 0)
(9.66743 0.109565 0)
(9.5915 0.118838 0)
(9.4997 0.125076 0)
(9.9979 0.0344092 0)
(10.0306 0.061893 0)
(10.0626 0.0648152 0)
(10.0833 0.064737 0)
(10.0959 0.066882 0)
(10.1056 0.0699598 0)
(10.1149 0.0727361 0)
(10.1236 0.0751636 0)
(10.1315 0.0775249 0)
(10.1376 0.0801177 0)
(10.1423 0.0830619 0)
(10.1448 0.0864996 0)
(10.1465 0.0907722 0)
(10.1453 0.0959528 0)
(10.1448 0.103138 0)
(10.1405 0.11136 0)
(10.1396 0.122582 0)
(10.1323 0.129787 0)
(10.011 0.0287586 0)
(10.035 0.0553895 0)
(10.061 0.0597989 0)
(10.0785 0.0602481 0)
(10.0881 0.0628764 0)
(10.0946 0.0666819 0)
(10.1007 0.0702307 0)
(10.107 0.0732386 0)
(10.1132 0.0760931 0)
(10.1186 0.0790776 0)
(10.1234 0.0824679 0)
(10.1274 0.0863525 0)
(10.131 0.0910654 0)
(10.1344 0.0968296 0)
(10.1379 0.104082 0)
(10.1425 0.112913 0)
(10.1483 0.122719 0)
(10.1571 0.132329 0)
(9.99245 0.0196954 0)
(10.0116 0.0465194 0)
(10.0351 0.0542157 0)
(10.0528 0.0564262 0)
(10.0634 0.0596781 0)
(10.0705 0.0639266 0)
(10.0768 0.067927 0)
(10.0832 0.0713024 0)
(10.0893 0.0744035 0)
(10.0947 0.0775529 0)
(10.0994 0.0810837 0)
(10.1035 0.0850744 0)
(10.1071 0.089877 0)
(10.1107 0.0955611 0)
(10.1143 0.102518 0)
(10.1191 0.110527 0)
(10.1248 0.119223 0)
(10.133 0.128006 0)
(9.99589 0.015019 0)
(10.01 0.0408267 0)
(10.0297 0.051111 0)
(10.0462 0.0548675 0)
(10.0568 0.0583381 0)
(10.0637 0.0625411 0)
(10.0696 0.0666243 0)
(10.0755 0.0701546 0)
(10.0813 0.0733482 0)
(10.0866 0.0765818 0)
(10.0913 0.0801454 0)
(10.0955 0.0842311 0)
(10.0992 0.0889963 0)
(10.1031 0.0946182 0)
(10.107 0.101112 0)
(10.1119 0.108471 0)
(10.1175 0.116128 0)
(10.1247 0.123758 0)
(9.99424 0.0116543 0)
(10.0046 0.0346883 0)
(10.0213 0.0460979 0)
(10.0364 0.0507981 0)
(10.0469 0.0542305 0)
(10.0539 0.0582017 0)
(10.0597 0.0623034 0)
(10.0654 0.0660416 0)
(10.071 0.0694729 0)
(10.0763 0.0729207 0)
(10.0811 0.0766693 0)
(10.0855 0.0809167 0)
(10.0897 0.0857551 0)
(10.094 0.0913079 0)
(10.0986 0.0974827 0)
(10.1039 0.104283 0)
(10.1097 0.111166 0)
(10.1168 0.118007 0)
(9.99446 0.014093 0)
(10.0028 0.0337475 0)
(10.017 0.0453235 0)
(10.0309 0.050681 0)
(10.0413 0.0540526 0)
(10.0486 0.0576483 0)
(10.0546 0.0615428 0)
(10.0604 0.065293 0)
(10.0661 0.0687938 0)
(10.0716 0.072266 0)
(10.0767 0.075959 0)
(10.0814 0.0800831 0)
(10.0859 0.0847058 0)
(10.0905 0.0899234 0)
(10.0954 0.0956041 0)
(10.1009 0.101746 0)
(10.1069 0.107894 0)
(10.1138 0.114047 0)
(10.0052 0.0090314 0)
(10.0122 0.02697 0)
(10.0243 0.0389242 0)
(10.0368 0.0454429 0)
(10.0467 0.0495787 0)
(10.0538 0.0534967 0)
(10.0597 0.0576196 0)
(10.0652 0.0616602 0)
(10.0708 0.0654699 0)
(10.0763 0.0692136 0)
(10.0814 0.0731083 0)
(10.0863 0.0773655 0)
(10.0911 0.0820094 0)
(10.0959 0.0871227 0)
(10.101 0.0925176 0)
(10.1066 0.0982499 0)
(10.1127 0.103861 0)
(10.1195 0.10957 0)
(10.0022 0.0042534 0)
(10.0081 0.0212042 0)
(10.0185 0.0330944 0)
(10.0297 0.0402853 0)
(10.0392 0.0449515 0)
(10.0467 0.0490091 0)
(10.0529 0.0531187 0)
(10.0587 0.0571956 0)
(10.0645 0.0611089 0)
(10.0703 0.0649483 0)
(10.0758 0.0688752 0)
(10.0812 0.0730623 0)
(10.0865 0.0775357 0)
(10.0919 0.0823506 0)
(10.0975 0.0873585 0)
(10.1035 0.0925986 0)
(10.1098 0.0977339 0)
(10.1167 0.10294 0)
(10.0052 0.00771785 0)
(10.0097 0.0230139 0)
(10.0182 0.0340541 0)
(10.0278 0.0411917 0)
(10.0366 0.0459662 0)
(10.0438 0.0499481 0)
(10.0499 0.0538629 0)
(10.0557 0.057764 0)
(10.0614 0.0615356 0)
(10.0671 0.0652206 0)
(10.0727 0.0689355 0)
(10.0783 0.0728552 0)
(10.0837 0.0769948 0)
(10.0894 0.0814279 0)
(10.0952 0.085971 0)
(10.1016 0.0907142 0)
(10.108 0.0952707 0)
(10.1152 0.0999499 0)
(9.99638 0.000922038 0)
(9.99994 0.0151386 0)
(10.0073 0.0257889 0)
(10.016 0.0332046 0)
(10.0242 0.0384223 0)
(10.0313 0.0426671 0)
(10.0375 0.0466867 0)
(10.0434 0.0506923 0)
(10.0492 0.0546335 0)
(10.055 0.0585184 0)
(10.0607 0.0623878 0)
(10.0664 0.0663733 0)
(10.072 0.0704602 0)
(10.0778 0.0747413 0)
(10.0837 0.0790338 0)
(10.0901 0.08348 0)
(10.0964 0.0876907 0)
(10.1036 0.0920316 0)
(9.99757 0.00502712 0)
(9.99986 0.0169497 0)
(10.0061 0.0263783 0)
(10.014 0.0333077 0)
(10.0216 0.0384215 0)
(10.0284 0.0426034 0)
(10.0345 0.0464638 0)
(10.0403 0.0502477 0)
(10.0461 0.0539684 0)
(10.0519 0.0576505 0)
(10.0578 0.0613155 0)
(10.0636 0.0650657 0)
(10.0694 0.0688705 0)
(10.0753 0.0728061 0)
(10.0813 0.0766972 0)
(10.0877 0.0806782 0)
(10.0941 0.0843974 0)
(10.101 0.0882075 0)
(10.0011 0.00378794 0)
(10.003 0.0138675 0)
(10.0082 0.0222065 0)
(10.0148 0.0286665 0)
(10.0216 0.0336434 0)
(10.028 0.0377511 0)
(10.034 0.041498 0)
(10.0397 0.0451529 0)
(10.0453 0.0487591 0)
(10.051 0.052328 0)
(10.0568 0.0558387 0)
(10.0627 0.0593676 0)
(10.0687 0.0628772 0)
(10.075 0.0664662 0)
(10.0813 0.0699683 0)
(10.088 0.0735535 0)
(10.0946 0.0768533 0)
(10.1017 0.080284 0)
(9.98927 0.00133244 0)
(9.99117 0.0100308 0)
(9.99601 0.0175225 0)
(10.0023 0.0236899 0)
(10.0088 0.0286788 0)
(10.0152 0.0328735 0)
(10.0213 0.0366679 0)
(10.0273 0.0403134 0)
(10.0333 0.0438632 0)
(10.0393 0.0473256 0)
(10.0454 0.0506633 0)
(10.0515 0.0539433 0)
(10.0577 0.0571335 0)
(10.0639 0.0603476 0)
(10.0702 0.0634414 0)
(10.0766 0.0665947 0)
(10.0832 0.0694684 0)
(10.0899 0.0724602 0)
(10.0066 0.00156883 0)
(10.0076 0.0086392 0)
(10.0114 0.0148435 0)
(10.0165 0.0201322 0)
(10.0221 0.0245539 0)
(10.0278 0.0283343 0)
(10.0334 0.0317383 0)
(10.0392 0.0349723 0)
(10.045 0.0381123 0)
(10.0509 0.0411939 0)
(10.057 0.0441838 0)
(10.0631 0.0471214 0)
(10.0692 0.0499503 0)
(10.0754 0.0527583 0)
(10.0817 0.0554046 0)
(10.088 0.0580598 0)
(10.0944 0.0604148 0)
(10.1009 0.0628573 0)
(9.99627 0.00249391 0)
(9.99712 0.00730701 0)
(10.0007 0.0117042 0)
(10.0055 0.0157004 0)
(10.0108 0.0192515 0)
(10.0162 0.0224323 0)
(10.0219 0.0253764 0)
(10.0277 0.0281988 0)
(10.0337 0.0309326 0)
(10.0398 0.033598 0)
(10.046 0.0361579 0)
(10.0523 0.0386426 0)
(10.0587 0.0409948 0)
(10.0651 0.0433012 0)
(10.0715 0.0454397 0)
(10.0781 0.0475882 0)
(10.0845 0.0494668 0)
(10.0911 0.0514563 0)
(9.9978 0.00162609 0)
(9.99891 0.00448376 0)
(10.0024 0.00724723 0)
(10.0069 0.00988119 0)
(10.0119 0.012348 0)
(10.0173 0.0146687 0)
(10.023 0.01688 0)
(10.0289 0.0190242 0)
(10.035 0.0211075 0)
(10.0412 0.0231504 0)
(10.0475 0.0251285 0)
(10.0539 0.0270714 0)
(10.0603 0.0289228 0)
(10.0667 0.030745 0)
(10.073 0.0324184 0)
(10.0794 0.0340798 0)
(10.0856 0.0354886 0)
(10.0919 0.0369569 0)
(9.99407 0.00128947 0)
(9.99533 0.00216677 0)
(9.99898 0.0032551 0)
(10.0036 0.00449178 0)
(10.0087 0.00580865 0)
(10.014 0.00717266 0)
(10.0197 0.00855577 0)
(10.0255 0.00995202 0)
(10.0316 0.011352 0)
(10.0378 0.0127693 0)
(10.044 0.0141776 0)
(10.0503 0.015587 0)
(10.0567 0.0169316 0)
(10.063 0.0182445 0)
(10.0693 0.0194168 0)
(10.0755 0.0205616 0)
(10.0817 0.0214861 0)
(10.0878 0.0224588 0)
(10.0005 -0.00236996 0)
(10.0019 -0.00352418 0)
(10.0059 -0.00420848 0)
(10.0111 -0.00440977 0)
(10.0168 -0.0041602 0)
(10.0226 -0.00359791 0)
(10.0286 -0.00289766 0)
(10.0347 -0.00216073 0)
(10.0408 -0.00142268 0)
(10.0471 -0.000664521 0)
(10.0534 0.000109748 0)
(10.0598 0.000919423 0)
(10.0661 0.00171701 0)
(10.0724 0.00252388 0)
(10.0786 0.00324734 0)
(10.0847 0.00396244 0)
(10.0908 0.00451349 0)
(10.0967 0.00509753 0)
(10.007 0.000573268 0)
(10.0086 -0.00305826 0)
(10.0131 -0.00567431 0)
(10.0189 -0.00720267 0)
(10.025 -0.00787408 0)
(10.0311 -0.00803328 0)
(10.0371 -0.00796741 0)
(10.0432 -0.00781243 0)
(10.0495 -0.00759738 0)
(10.0559 -0.00729982 0)
(10.0623 -0.00692595 0)
(10.0687 -0.00647528 0)
(10.075 -0.00599952 0)
(10.0812 -0.0054949 0)
(10.0873 -0.00504283 0)
(10.0934 -0.00459419 0)
(10.0993 -0.00427941 0)
(10.1051 -0.00394951 0)
(10.0082 -0.0035686 0)
(10.0104 -0.00934838 0)
(10.0157 -0.013469 0)
(10.0225 -0.0158359 0)
(10.0294 -0.0169431 0)
(10.036 -0.0174422 0)
(10.0423 -0.0177622 0)
(10.0486 -0.0180198 0)
(10.0549 -0.0181764 0)
(10.0613 -0.0181826 0)
(10.0677 -0.0180616 0)
(10.0741 -0.017852 0)
(10.0803 -0.0176227 0)
(10.0865 -0.0173791 0)
(10.0926 -0.0171794 0)
(10.0986 -0.0169762 0)
(10.1045 -0.016866 0)
(10.1103 -0.016728 0)
(9.99816 -0.00161146 0)
(10.0014 -0.00955877 0)
(10.0081 -0.0151657 0)
(10.0162 -0.0183373 0)
(10.024 -0.0198584 0)
(10.031 -0.0206548 0)
(10.0375 -0.0212409 0)
(10.0439 -0.0217297 0)
(10.0504 -0.0220883 0)
(10.0569 -0.0222938 0)
(10.0634 -0.0223852 0)
(10.0698 -0.0224015 0)
(10.0761 -0.0223955 0)
(10.0822 -0.0223675 0)
(10.0882 -0.0223633 0)
(10.0941 -0.0223498 0)
(10.0998 -0.0224044 0)
(10.1054 -0.0224411 0)
(9.99744 -0.00609431 0)
(10.0021 -0.015974 0)
(10.0108 -0.0224701 0)
(10.0206 -0.0257589 0)
(10.0292 -0.0272764 0)
(10.0364 -0.0282446 0)
(10.043 -0.0291042 0)
(10.0495 -0.029837 0)
(10.0562 -0.0303776 0)
(10.063 -0.0307352 0)
(10.0696 -0.0309734 0)
(10.0761 -0.0311346 0)
(10.0824 -0.0312613 0)
(10.0886 -0.031354 0)
(10.0947 -0.0314563 0)
(10.1006 -0.0315477 0)
(10.1065 -0.0316989 0)
(10.1121 -0.0318406 0)
(10.0009 -0.00757812 0)
(10.0069 -0.0197266 0)
(10.0178 -0.0265524 0)
(10.0292 -0.0293737 0)
(10.0386 -0.0307108 0)
(10.046 -0.0319015 0)
(10.0527 -0.0330751 0)
(10.0594 -0.0340124 0)
(10.0663 -0.0346342 0)
(10.0733 -0.0350176 0)
(10.0801 -0.035282 0)
(10.0866 -0.0354994 0)
(10.093 -0.0357108 0)
(10.0992 -0.0359134 0)
(10.1054 -0.0361289 0)
(10.1113 -0.0363369 0)
(10.1172 -0.0365826 0)
(10.1228 -0.0368123 0)
(9.99847 -0.0119698 0)
(10.007 -0.0268482 0)
(10.0208 -0.0329918 0)
(10.0335 -0.0346834 0)
(10.043 -0.0356974 0)
(10.0502 -0.037075 0)
(10.0568 -0.0384798 0)
(10.0636 -0.0395523 0)
(10.0706 -0.0402676 0)
(10.0776 -0.0407643 0)
(10.0844 -0.0411636 0)
(10.091 -0.0415139 0)
(10.0974 -0.0418251 0)
(10.1036 -0.0420929 0)
(10.1097 -0.0423326 0)
(10.1156 -0.0425522 0)
(10.1213 -0.0427832 0)
(10.1269 -0.043018 0)
(9.99422 -0.0146242 0)
(10.0071 -0.0327766 0)
(10.0242 -0.0375796 0)
(10.0383 -0.0379571 0)
(10.0479 -0.0386668 0)
(10.0552 -0.0401829 0)
(10.0622 -0.041752 0)
(10.0694 -0.0429628 0)
(10.0768 -0.0438465 0)
(10.0841 -0.0445641 0)
(10.091 -0.0452223 0)
(10.0978 -0.0458469 0)
(10.1043 -0.0464393 0)
(10.1106 -0.0469859 0)
(10.1169 -0.0475091 0)
(10.123 -0.0480008 0)
(10.129 -0.0485174 0)
(10.1347 -0.049002 0)
(10.0068 -0.0180839 0)
(10.0266 -0.0387474 0)
(10.0484 -0.0423379 0)
(10.0641 -0.0417288 0)
(10.0743 -0.0418348 0)
(10.0825 -0.0427253 0)
(10.0906 -0.0435965 0)
(10.0992 -0.0441568 0)
(10.1079 -0.0444968 0)
(10.1164 -0.0447867 0)
(10.1247 -0.0450863 0)
(10.1325 -0.0454212 0)
(10.1401 -0.0457441 0)
(10.1474 -0.0460855 0)
(10.1544 -0.0463928 0)
(10.1611 -0.0467496 0)
(10.1677 -0.0470823 0)
(10.1737 -0.0475579 0)
(10.0139 -0.0315484 0)
(10.0571 -0.0530332 0)
(10.0929 -0.0576141 0)
(10.1152 -0.0585818 0)
(10.1277 -0.0597613 0)
(10.1354 -0.0611179 0)
(10.1405 -0.0621651 0)
(10.1439 -0.0628272 0)
(10.1453 -0.0632378 0)
(10.1447 -0.0635475 0)
(10.1424 -0.0637952 0)
(10.1385 -0.0640189 0)
(10.1333 -0.0641787 0)
(10.1273 -0.0643286 0)
(10.1201 -0.0644126 0)
(10.1125 -0.0645241 0)
(10.1038 -0.0645882 0)
(10.0953 -0.0647498 0)
(9.90571 -0.0098509 0)
(9.74137 -0.0206265 0)
(9.57914 -0.023612 0)
(9.41306 -0.0249703 0)
(9.24749 -0.026226 0)
(9.08714 -0.0273733 0)
(8.934 -0.0282523 0)
(8.78811 -0.0288516 0)
(8.64873 -0.0292416 0)
(8.5154 -0.0294921 0)
(8.38763 -0.0296494 0)
(8.26548 -0.0297383 0)
(8.14844 -0.0297823 0)
(8.03686 -0.0297811 0)
(7.92969 -0.029769 0)
(7.82794 -0.0297052 0)
(7.72949 -0.0296877 0)
(7.63708 -0.0295422 0)
(-0.0614666 0.00367137 1.59593e-22)
(-0.115206 -0.0594743 -1.55518e-22)
(-0.123332 -0.108112 0)
(-0.101162 -0.151805 0)
(-0.0227597 -0.186574 0)
(0.0891592 -0.204179 1.45021e-22)
(0.212187 -0.206329 0)
(0.335074 -0.197207 0)
(0.455457 -0.183952 0)
(0.570877 -0.165971 0)
(0.674716 -0.145142 -4.53521e-23)
(0.764817 -0.127747 0)
(0.843222 -0.112816 0)
(0.90868 -0.0949111 0)
(0.958237 -0.0745306 0)
(0.991559 -0.0559432 1.19872e-22)
(1.01053 -0.0400677 0)
(1.01654 -0.0257249 0)
(1.01005 -0.0109738 0)
(0.990719 0.00547444 0)
(0.95721 0.0253854 0)
(0.906777 0.044397 0)
(0.84183 0.0564704 0)
(0.770377 0.0576411 1.11298e-22)
(0.69003 0.0539854 -1.01517e-22)
(0.609706 0.0294216 9.39251e-23)
(0.537964 -0.004094 8.91416e-23)
(0.465015 -0.0320174 0)
(0.408052 -0.0678718 0)
(0.363161 -0.0529755 -9.24094e-23)
(0.300017 0.000463386 -9.71784e-23)
(0.215537 0.0252243 0)
(0.119448 0.0228632 0)
(0.0293584 0.0166258 -1.34815e-22)
(-0.0566164 0.0116044 0)
(-0.136897 0.00894572 0)
(-0.212608 0.00596182 1.93433e-22)
(-0.280115 -0.00123762 0)
(-0.347838 -0.00116929 2.32006e-22)
(-0.428231 0.00779283 5.06363e-22)
(-0.511117 0.0135471 0)
(-0.604767 0.0221143 0)
(-0.691692 -0.00286621 0)
(-0.74576 -0.0301996 0)
(-0.796053 -0.0221552 0)
(-0.820414 -0.0290663 7.78074e-22)
(-0.859101 -0.0429626 8.11236e-22)
(-0.873008 -0.05031 8.38061e-22)
(-0.900643 -0.0178264 0)
(-0.975601 0.00332843 -8.72789e-22)
(-1.0257 0.00305566 0)
(-1.08317 0.00722658 9.22646e-22)
(-1.1513 0.00351619 9.48336e-22)
(-1.21716 0.0307448 0)
(-1.32613 0.044683 0)
(-1.43581 0.0523421 0)
(-1.56493 0.0654398 1.05646e-21)
(-1.68787 0.0632203 0)
(-1.79313 0.0573253 0)
(-1.90166 0.0526661 0)
(-2.00598 0.0542473 0)
(-2.10865 0.0510533 0)
(-2.20324 0.0451993 0)
(-2.29704 0.0376061 0)
(-2.36941 0.022698 0)
(-2.42301 0.0139166 -1.45692e-21)
(-2.46321 0.00659329 0)
(-2.49407 -0.00219974 0)
(-2.51167 -0.0141432 1.49168e-21)
(-2.53037 -0.0165016 1.47618e-21)
(-2.54909 -0.0242647 0)
(-2.57106 -0.00523619 -1.3995e-21)
(-2.63165 0.0190943 1.34098e-21)
(-2.68652 0.021672 0)
(-2.74295 0.016088 -1.21717e-21)
(-2.79769 0.00411017 0)
(-2.84304 0.00236348 0)
(-2.91006 0.0104314 1.0483e-21)
(-2.97667 0.0129559 0)
(-3.06447 0.00387419 -9.78268e-22)
(-3.10707 -0.00175656 0)
(-3.15937 -0.0143326 9.36754e-22)
(-3.18007 -0.000230009 9.18193e-22)
(-3.27559 0.0397932 9.00404e-22)
(-3.36473 0.0410581 1.78003e-21)
(-3.41927 0.0347291 -1.76952e-21)
(-3.45904 0.0226755 0)
(-3.481 0.0118156 0)
(-3.48986 -0.00182287 0)
(-3.47567 -0.0136691 -1.68383e-21)
(-3.46257 -0.0136014 -1.62991e-21)
(-3.46622 -0.00829484 1.56087e-21)
(-3.45777 -0.000648306 0)
(-3.5098 0.0246691 -1.40868e-21)
(-3.58893 0.024971 -1.35552e-21)
(-3.62714 0.0105338 -1.3225e-21)
(-3.63705 -0.00121239 0)
(-3.62321 -0.0111385 0)
(-3.5955 -0.0194361 0)
(-3.55888 -0.0261962 -1.05547e-21)
(-3.50876 -0.0304423 0)
(-3.44092 -0.0406785 0)
(-3.3438 -0.0536837 5.58851e-22)
(-3.24355 -0.0557745 0)
(-3.13305 -0.0640929 0)
(-3.00702 -0.0520933 -1.79522e-22)
(-2.94891 -0.0429115 0)
(-2.87994 -0.048327 0)
(-2.80033 -0.0439155 8.41893e-22)
(-2.7238 -0.0388781 1.00786e-21)
(-2.63781 -0.0385282 0)
(-2.54055 -0.0420548 -1.26974e-21)
(-2.42618 -0.0481973 0)
(-2.29669 -0.053148 1.46906e-21)
(-2.15779 -0.0553817 0)
(-2.01375 -0.0557593 1.64884e-21)
(-1.86786 -0.0553099 1.74386e-21)
(-1.7224 -0.0546604 0)
(-1.57947 -0.0527912 0)
(-1.43982 -0.0528411 0)
(-1.31407 -0.0468506 0)
(-1.17168 -0.0566507 0)
(-1.02282 -0.0385642 0)
(-0.982449 -0.0100695 0)
(-0.935658 -0.0127219 2.48855e-21)
(-0.860768 -0.0158614 -2.49108e-21)
(-0.781938 -0.0218874 0)
(-0.69548 -0.0329809 0)
(-0.592943 -0.0357603 0)
(-0.475624 -0.0277152 0)
(-0.379834 -0.0213923 -4.91054e-21)
(-0.320267 -0.0195932 0)
(-0.223867 -0.0216217 5.11369e-21)
(-0.236869 0.0140594 -5.2009e-21)
(-0.362499 0.0358254 0)
(-0.447818 0.026498 0)
(-0.495006 0.0334567 0)
(-0.629474 0.0410078 4.62981e-21)
(-0.698185 0.022294 4.39444e-21)
(-0.688301 0.00492238 0)
(-0.648038 -0.00625048 4.09924e-21)
(-0.571188 -0.0152231 4.09388e-21)
(-0.474113 -0.0214692 -4.18657e-21)
(-0.354842 -0.0268744 0)
(-0.21969 -0.0311941 0)
(-0.0678012 -0.0352502 -4.9708e-21)
(0.0964631 -0.0387305 0)
(0.274686 -0.0414869 0)
(0.458335 -0.0444048 0)
(0.65071 -0.0480091 0)
(0.841938 -0.0482723 7.3106e-21)
(1.03178 -0.0470972 7.76154e-21)
(1.20759 -0.0421691 0)
(1.38434 -0.0448979 8.47404e-21)
(1.55448 -0.0469021 0)
(1.67946 -0.0391997 0)
(1.76711 -0.0334382 8.7864e-21)
(1.85689 -0.0304309 0)
(1.95386 -0.0253517 8.48936e-21)
(2.04394 -0.0184386 0)
(2.12019 -0.0121501 0)
(2.17896 -0.00695847 7.88328e-21)
(2.21729 -0.00314433 0)
(2.24234 -0.00222461 7.52342e-21)
(2.27151 -0.00326677 0)
(2.30354 -0.00440315 0)
(2.33664 -0.00720499 0)
(2.37648 -0.0107539 -7.26832e-21)
(2.42557 -0.0125627 0)
(2.48306 -0.0127714 7.35953e-21)
(2.54615 -0.0117064 0)
(2.60281 -0.0099775 0)
(2.6549 -0.00687669 0)
(2.68529 -0.00395381 0)
(2.71138 0.00249974 0)
(2.69026 0.0088713 0)
(2.66682 0.0209792 0)
(2.53553 0.0248712 -1.41735e-20)
(2.47725 0.0349863 0)
(2.23562 0.026463 0)
(-0.0210678 0.189964 -4.48021e-22)
(-0.0216883 0.0960694 4.34818e-22)
(0.0147017 -0.00717682 0)
(0.113809 -0.128793 -2.43446e-22)
(0.240201 -0.252684 0)
(0.363963 -0.341002 -1.4643e-22)
(0.483644 -0.39162 1.59832e-22)
(0.598423 -0.409666 1.13059e-22)
(0.706681 -0.399804 0)
(0.805194 -0.369173 -1.36393e-23)
(0.891306 -0.326787 4.7139e-23)
(0.963407 -0.280642 0)
(1.0213 -0.235353 0)
(1.06467 -0.192773 0)
(1.09658 -0.150915 0)
(1.12172 -0.108545 -1.18568e-22)
(1.13903 -0.067681 0)
(1.14513 -0.027699 4.17452e-22)
(1.1375 0.0119297 0)
(1.11665 0.0501599 0)
(1.08558 0.089056 -3.91938e-22)
(1.04164 0.127011 0)
(0.98646 0.156923 3.43994e-22)
(0.92486 0.181657 -1.09453e-22)
(0.863134 0.192669 9.95104e-23)
(0.795043 0.18814 -9.17931e-23)
(0.70817 0.194575 -8.69441e-23)
(0.595873 0.207467 0)
(0.469732 0.209199 0)
(0.337657 0.21483 9.03387e-23)
(0.198996 0.197252 -1.97778e-22)
(0.0828774 0.168089 0)
(-0.00116056 0.164506 0)
(-0.0803441 0.162225 1.3308e-22)
(-0.150123 0.149813 0)
(-0.223829 0.137621 0)
(-0.296166 0.130776 -1.91373e-22)
(-0.353849 0.118386 0)
(-0.423603 0.121293 3.55905e-22)
(-0.502868 0.144471 -5.0222e-22)
(-0.583604 0.170571 0)
(-0.661104 0.182325 0)
(-0.75081 0.16977 -1.51398e-21)
(-0.846266 0.140414 -1.59874e-21)
(-0.942299 0.0886676 -1.6812e-21)
(-1.05946 0.0594468 9.85089e-22)
(-1.17812 0.0882559 -8.07353e-22)
(-1.24318 0.0800944 -2.73714e-21)
(-1.3012 0.0648575 1.95843e-21)
(-1.36484 0.0647288 8.6868e-22)
(-1.41669 0.0711161 0)
(-1.50214 0.11566 -9.18923e-22)
(-1.59912 0.141291 1.22187e-21)
(-1.68332 0.153534 0)
(-1.80178 0.182627 0)
(-1.93064 0.204031 0)
(-2.05777 0.21413 -1.05332e-21)
(-2.17704 0.214181 0)
(-2.28781 0.200432 2.55425e-21)
(-2.40098 0.187294 0)
(-2.5082 0.181209 2.72759e-21)
(-2.59445 0.165178 0)
(-2.66111 0.149039 -2.90557e-21)
(-2.71741 0.129055 0)
(-2.75929 0.100576 3.06375e-21)
(-2.78772 0.0679997 -1.66722e-21)
(-2.8032 0.0380195 0)
(-2.81194 0.0128278 -3.17571e-21)
(-2.81736 -5.7064e-05 -1.49038e-21)
(-2.84111 0.0104634 -1.47503e-21)
(-2.89226 0.0408469 0)
(-2.94221 0.06496 -1.584e-21)
(-3.00961 0.0733272 -1.34017e-21)
(-3.08606 0.0749034 0)
(-3.18749 0.0891645 1.21547e-21)
(-3.28039 0.0972823 -2.52164e-21)
(-3.35222 0.0891408 0)
(-3.45186 0.0961226 -1.04623e-21)
(-3.52487 0.0919758 0)
(-3.58381 0.0789446 3.15145e-21)
(-3.61435 0.0605274 0)
(-3.70118 0.0866417 -3.01819e-21)
(-3.73084 0.0882614 -9.15991e-22)
(-3.75079 0.0726578 1.11995e-21)
(-3.74154 0.041742 2.21141e-21)
(-3.71997 0.0172105 -2.17741e-21)
(-3.69278 -0.00848499 0)
(-3.66862 -0.0255465 0)
(-3.668 -0.0118358 0)
(-3.68642 0.00214603 5.34439e-21)
(-3.69438 0.000147841 1.62675e-21)
(-3.73258 0.0199612 -1.55794e-21)
(-3.79674 0.046898 0)
(-3.84975 0.0454284 -1.86791e-21)
(-3.87223 0.0193129 1.3537e-21)
(-3.85934 -0.0132338 1.32034e-21)
(-3.82387 -0.0452541 0)
(-3.77007 -0.0715319 0)
(-3.70786 -0.0937307 0)
(-3.63436 -0.111077 1.05366e-21)
(-3.55188 -0.116362 0)
(-3.45993 -0.128885 -1.84033e-21)
(-3.36246 -0.149649 -1.97533e-21)
(-3.26447 -0.157592 9.48899e-22)
(-3.20672 -0.135842 0)
(-3.15374 -0.119291 1.28373e-22)
(-3.12117 -0.114778 0)
(-3.05433 -0.119745 -9.45034e-22)
(-2.9692 -0.124165 4.84452e-22)
(-2.86357 -0.137365 6.6051e-22)
(-2.73573 -0.156342 0)
(-2.58722 -0.175534 3.50766e-21)
(-2.42592 -0.190721 -2.47266e-21)
(-2.25595 -0.199633 -1.4694e-21)
(-2.08362 -0.202383 0)
(-1.91106 -0.200893 -1.64854e-21)
(-1.74108 -0.196928 -5.03694e-21)
(-1.57525 -0.191137 0)
(-1.41675 -0.181987 -3.74909e-21)
(-1.26864 -0.168769 -3.99046e-21)
(-1.12509 -0.16095 -4.22515e-21)
(-1.04721 -0.131414 0)
(-0.967824 -0.0987376 0)
(-0.87748 -0.0942597 0)
(-0.763986 -0.101485 2.30363e-21)
(-0.640792 -0.10537 2.48997e-21)
(-0.513305 -0.120664 0)
(-0.388393 -0.13717 4.77477e-21)
(-0.277823 -0.131036 4.7455e-21)
(-0.159306 -0.111832 0)
(-0.0481589 -0.0893191 4.90745e-21)
(0.0154993 -0.063456 9.74025e-21)
(-0.0354643 0.000711124 -5.1084e-21)
(-0.161958 0.0569285 -4.72263e-21)
(-0.229764 0.0561355 0)
(-0.289198 0.0596246 0)
(-0.345625 0.0604119 0)
(-0.37251 0.0316485 -4.63053e-21)
(-0.327036 -0.0143355 3.86381e-21)
(-0.249251 -0.0509145 7.95383e-21)
(-0.154623 -0.0797346 -4.09699e-21)
(-0.0382666 -0.102361 3.75104e-21)
(0.0908259 -0.120517 4.1824e-21)
(0.237255 -0.136005 0)
(0.395559 -0.148994 0)
(0.568732 -0.159893 -4.7114e-21)
(0.75137 -0.168873 0)
(0.947753 -0.176004 0)
(1.14986 -0.179778 1.23985e-20)
(1.36097 -0.181576 0)
(1.56955 -0.178825 7.10029e-21)
(1.77658 -0.170183 -7.7554e-21)
(1.96862 -0.15632 0)
(2.15161 -0.147116 8.29386e-21)
(2.30002 -0.130726 0)
(2.42181 -0.110264 0)
(2.53789 -0.101189 -8.77943e-21)
(2.65902 -0.09876 1.70908e-20)
(2.77249 -0.0926125 -8.48221e-21)
(2.87474 -0.0793586 0)
(2.96423 -0.0624992 0)
(3.03792 -0.0461546 7.7101e-21)
(3.09961 -0.0352478 0)
(3.1586 -0.032619 7.36199e-21)
(3.22183 -0.033988 0)
(3.28266 -0.0345367 0)
(3.3404 -0.0355633 0)
(3.39635 -0.0386367 7.2622e-21)
(3.45198 -0.0435202 0)
(3.50387 -0.0491256 -7.35351e-21)
(3.55141 -0.052467 0)
(3.59286 -0.0511746 0)
(3.64272 -0.0430039 1.47682e-20)
(3.68116 -0.0324786 -1.46974e-20)
(3.72027 -0.0141898 0)
(3.71685 0.00722305 0)
(3.70492 0.0367136 0)
(3.61374 0.05376 4.22409e-20)
(3.59294 0.0752142 0)
(3.45492 0.0791618 -2.73286e-20)
(0.0140615 0.181839 2.38485e-23)
(0.0558883 0.0516506 -5.3384e-22)
(0.159009 -0.163892 0)
(0.304031 -0.389977 4.26931e-22)
(0.441492 -0.554991 0)
(0.557913 -0.642828 0)
(0.654323 -0.668681 -1.6758e-22)
(0.735065 -0.649037 -1.15261e-22)
(0.801584 -0.597565 1.53559e-22)
(0.856611 -0.526633 1.21895e-23)
(0.902152 -0.447512 0)
(0.937788 -0.367361 0)
(0.963289 -0.290569 -4.31055e-22)
(0.978391 -0.220351 -9.63103e-22)
(0.984626 -0.1572 1.04272e-21)
(0.985043 -0.0996553 0)
(0.982781 -0.046364 1.13312e-21)
(0.971547 0.00580492 -4.18303e-22)
(0.951293 0.0581116 0)
(0.924035 0.113164 1.10731e-21)
(0.8908 0.166291 3.91913e-22)
(0.851398 0.217157 -1.01636e-21)
(0.805702 0.263211 -3.43189e-22)
(0.757905 0.285433 0)
(0.696144 0.305778 8.63733e-22)
(0.615305 0.34479 8.26195e-22)
(0.527008 0.380481 0)
(0.430337 0.410186 7.87813e-22)
(0.323222 0.426402 0)
(0.20757 0.43895 8.13401e-22)
(0.0903046 0.441001 2.90161e-22)
(-0.0241887 0.414997 0)
(-0.135977 0.37773 0)
(-0.246639 0.340185 0)
(-0.336849 0.306157 0)
(-0.413758 0.28499 0)
(-0.490355 0.279302 0)
(-0.552405 0.264752 1.3746e-21)
(-0.620793 0.264093 -2.03966e-21)
(-0.69042 0.282072 0)
(-0.754463 0.303511 0)
(-0.817761 0.318692 0)
(-0.903967 0.331109 -2.7435e-22)
(-1.00899 0.337571 1.59717e-21)
(-1.14227 0.338631 3.63839e-21)
(-1.26426 0.318321 -3.80809e-21)
(-1.37893 0.287094 -2.13845e-21)
(-1.47143 0.239419 1.90207e-21)
(-1.57142 0.201927 3.40706e-22)
(-1.66703 0.204804 2.3691e-21)
(-1.78812 0.248524 0)
(-1.90295 0.285382 2.48933e-21)
(-2.01424 0.309234 3.72514e-22)
(-2.14493 0.354458 0)
(-2.28085 0.414903 0)
(-2.39941 0.42593 -2.70245e-21)
(-2.50617 0.413571 0)
(-2.61415 0.39338 0)
(-2.70833 0.364932 3.2813e-21)
(-2.78308 0.329429 5.99197e-21)
(-2.84156 0.288149 -2.72669e-21)
(-2.88408 0.242455 0)
(-2.91077 0.198893 2.90634e-21)
(-2.92612 0.158064 0)
(-2.93726 0.123803 3.67042e-21)
(-2.95073 0.0928236 3.125e-21)
(-2.97123 0.0631211 -6.87072e-21)
(-2.99483 0.0413451 -3.69952e-21)
(-3.037 0.0543817 0)
(-3.09628 0.0890569 6.77361e-21)
(-3.16046 0.126027 0)
(-3.23223 0.156684 9.47906e-21)
(-3.32798 0.186522 6.29605e-21)
(-3.41732 0.199016 6.07499e-21)
(-3.51288 0.205375 -5.8433e-21)
(-3.59267 0.204737 8.13574e-21)
(-3.66559 0.202042 0)
(-3.74383 0.20537 0)
(-3.78019 0.179603 -5.05542e-21)
(-3.79061 0.136141 -7.09667e-21)
(-3.81197 0.119793 0)
(-3.82722 0.114029 2.08401e-21)
(-3.79641 0.0899178 0)
(-3.75045 0.0547958 -6.62778e-21)
(-3.69535 0.0226225 5.55028e-22)
(-3.64808 0.00136716 -5.29453e-22)
(-3.61194 -0.00833608 4.39715e-21)
(-3.59639 -0.00819205 0)
(-3.59314 0.00819257 -4.2154e-21)
(-3.60219 0.0169231 4.58127e-22)
(-3.63816 0.0457901 0)
(-3.70133 0.0822359 0)
(-3.75429 0.092173 0)
(-3.76851 0.0644065 3.27829e-21)
(-3.74413 0.0161076 0)
(-3.69595 -0.0373888 0)
(-3.63403 -0.0850045 0)
(-3.56553 -0.122897 0)
(-3.49422 -0.155559 0)
(-3.41831 -0.178938 3.07169e-21)
(-3.34032 -0.183988 0)
(-3.25238 -0.197787 1.84245e-21)
(-3.17629 -0.214051 1.41974e-21)
(-3.12216 -0.194664 -9.51513e-22)
(-3.09255 -0.159831 0)
(-3.05925 -0.144506 4.99497e-23)
(-3.00532 -0.158267 0)
(-2.91582 -0.179022 9.4645e-22)
(-2.80642 -0.204124 -1.32871e-21)
(-2.66997 -0.238309 -4.08325e-21)
(-2.51618 -0.273498 0)
(-2.34656 -0.304061 -5.89485e-21)
(-2.17057 -0.32569 -1.71852e-21)
(-1.99116 -0.336864 0)
(-1.81382 -0.337746 -5.13028e-21)
(-1.63935 -0.331516 -5.57769e-21)
(-1.47042 -0.321224 9.32738e-21)
(-1.3091 -0.307175 0)
(-1.15573 -0.289754 3.74355e-21)
(-1.01536 -0.268623 3.98519e-21)
(-0.914141 -0.232929 1.22204e-20)
(-0.82993 -0.193132 0)
(-0.713786 -0.175859 0)
(-0.581641 -0.178459 0)
(-0.446345 -0.182836 4.28249e-21)
(-0.315731 -0.18409 0)
(-0.188785 -0.202481 0)
(-0.0755497 -0.216507 -4.77147e-21)
(0.0131794 -0.200145 -4.74258e-21)
(0.107855 -0.164451 0)
(0.180397 -0.112773 0)
(0.143228 -0.0248206 -9.73363e-21)
(0.0256183 0.0686662 0)
(-0.0622856 0.105699 9.91731e-21)
(-0.0789416 0.101343 8.94647e-21)
(-0.109032 0.0983712 0)
(-0.117774 0.0728916 0)
(-0.0773697 0.0159075 -7.86106e-21)
(-2.35102e-05 -0.0479077 -7.28006e-22)
(0.0783601 -0.0984348 -6.43501e-22)
(0.175479 -0.141082 0)
(0.286806 -0.175639 -1.51499e-20)
(0.41575 -0.205066 0)
(0.561174 -0.230157 0)
(0.721049 -0.25132 0)
(0.894188 -0.268884 9.67e-21)
(1.0776 -0.283204 0)
(1.27243 -0.29469 -2.20482e-20)
(1.47426 -0.301692 -1.23923e-20)
(1.68542 -0.304398 0)
(1.89633 -0.298951 -1.43984e-20)
(2.10494 -0.283303 0)
(2.29952 -0.259734 0)
(2.47387 -0.235883 -4.96874e-20)
(2.61104 -0.204089 3.37676e-20)
(2.74098 -0.175176 0)
(2.8767 -0.161474 3.39506e-20)
(3.01011 -0.153195 -1.70816e-20)
(3.12544 -0.140599 0)
(3.22017 -0.123352 0)
(3.29565 -0.105167 0)
(3.35679 -0.0892724 -4.6213e-20)
(3.41926 -0.0775473 0)
(3.49048 -0.0722172 -1.48714e-20)
(3.56513 -0.0703919 0)
(3.6377 -0.0681543 0)
(3.70979 -0.0664888 0)
(3.78056 -0.0666105 0)
(3.85009 -0.0680311 0)
(3.91492 -0.0693182 0)
(3.9732 -0.0675411 -2.91165e-20)
(4.01769 -0.0628101 0)
(4.05213 -0.0533887 -1.47623e-20)
(4.06919 -0.0405236 4.38342e-20)
(4.08103 -0.0159913 0)
(4.07011 0.0192364 0)
(4.05095 0.0588542 -2.81544e-20)
(3.98927 0.0862923 -2.80692e-20)
(3.97128 0.110117 2.72934e-20)
(3.89486 0.136235 2.73172e-20)
(0.0285912 0.0465794 7.31379e-22)
(0.14045 -0.239998 6.75747e-22)
(0.302817 -0.55336 3.17976e-22)
(0.44248 -0.746292 -1.23201e-23)
(0.543276 -0.823767 0)
(0.611893 -0.822698 1.82469e-22)
(0.659505 -0.776694 -3.58602e-22)
(0.69594 -0.704935 0)
(0.72415 -0.617586 -1.53953e-22)
(0.748109 -0.519634 0)
(0.77196 -0.422455 1.00206e-21)
(0.793036 -0.334823 0)
(0.809815 -0.25346 4.32774e-22)
(0.818351 -0.177384 9.66595e-22)
(0.815479 -0.10782 -1.04612e-21)
(0.80228 -0.046554 0)
(0.783428 0.00580976 -1.1361e-21)
(0.753969 0.0696532 0)
(0.719241 0.139794 0)
(0.68182 0.204785 -1.10904e-21)
(0.639871 0.263511 0)
(0.591725 0.313752 -2.96486e-22)
(0.540408 0.352463 0)
(0.480579 0.3958 0)
(0.409836 0.44986 3.15946e-22)
(0.334668 0.495457 -8.23904e-22)
(0.253934 0.53068 -1.1257e-21)
(0.169648 0.559118 -7.8479e-22)
(0.0791347 0.581083 0)
(-0.0202414 0.59921 -1.94994e-21)
(-0.121451 0.61093 0)
(-0.224694 0.600021 -1.22065e-21)
(-0.333691 0.573492 0)
(-0.447462 0.540627 0)
(-0.555384 0.500059 1.41658e-21)
(-0.65499 0.460318 0)
(-0.743911 0.423283 -1.56922e-21)
(-0.822294 0.391194 2.80011e-22)
(-0.903085 0.388808 3.19877e-21)
(-0.97944 0.404817 -3.67036e-21)
(-1.06501 0.442802 0)
(-1.15008 0.470092 0)
(-1.24787 0.49264 -2.43001e-21)
(-1.35163 0.507449 0)
(-1.45593 0.502485 -1.95765e-21)
(-1.54574 0.46788 2.05019e-21)
(-1.63141 0.418271 2.13896e-21)
(-1.71658 0.371478 0)
(-1.82561 0.373648 -2.3e-21)
(-1.9494 0.41945 -2.37058e-21)
(-2.09012 0.470771 5.70532e-21)
(-2.23371 0.506114 -2.48918e-21)
(-2.36923 0.519552 -2.53945e-21)
(-2.50146 0.534607 0)
(-2.61942 0.557632 0)
(-2.71492 0.554318 2.7011e-21)
(-2.80054 0.535866 0)
(-2.87222 0.495709 0)
(-2.92904 0.442292 -5.83186e-21)
(-2.97208 0.384188 -5.991e-21)
(-3.00285 0.326065 0)
(-3.02461 0.268629 0)
(-3.04929 0.21903 0)
(-3.07671 0.182536 0)
(-3.10169 0.150974 -6.74061e-21)
(-3.13352 0.123921 7.48185e-21)
(-3.17307 0.100089 6.87551e-21)
(-3.22164 0.0976136 1.43672e-20)
(-3.28591 0.126575 0)
(-3.36299 0.17551 5.85616e-22)
(-3.44219 0.229252 0)