/*--------------------------------*- C++ -*----------------------------------*\
  =========                 |
  \\      /  F ield         | OpenFOAM: The Open Source CFD Toolbox
   \\    /   O peration     | Website:  https://openfoam.org
    \\  /    A nd           | Version:  6
     \\/     M anipulation  |
\*---------------------------------------------------------------------------*/
FoamFile
{
    version     2.0;
    format      ascii;
    class       volSymmTensorField;
    location    "0.2";
    object      UPrime2Mean;
}
// * * * * * * * * * * * * * * * * * * * * * * * * * * * * * * * * * * * * * //

dimensions      [0 2 -2 0 0 0 0];

internalField   nonuniform List<symmTensor> 
12225
(
(0.0255702 8.99895e-05 0 0.00382338 0 0)
(0.0140339 5.94023e-06 0 0.00213761 0 0)
(0.0129255 -9.54376e-05 0 0.00153142 0 0)
(0.0141799 -0.000167268 0 0.00117089 0 0)
(0.0159703 -0.000228648 0 0.00092535 0 0)
(0.019202 -0.000289797 0 0.000750474 0 0)
(0.0251572 -0.000462982 0 0.000628444 0 0)
(0.0342489 -0.000598674 0 0.000527856 0 0)
(0.0482838 -0.00115812 0 0.000478225 0 0)
(0.0664878 -0.0011349 0 0.000398123 0 0)
(0.0955434 -0.00303491 0 0.000448608 0 0)
(0.130129 -0.00195717 0 0.000360862 0 0)
(0.194001 -0.00858632 0 0.000722903 0 0)
(0.264086 -0.00325296 0 0.000649164 0 0)
(0.420594 -0.0271485 0 0.00253448 0 0)
(0.586763 -0.00628529 0 0.00294858 0 0)
(1.04242 -0.101363 0 0.0150263 0 0)
(1.6223 -0.00939569 0 0.0099328 0 0)
(0.0279272 0.00046591 0 0.00320549 0 0)
(0.017276 0.000395659 0 0.00158456 0 0)
(0.0140674 0.00026 0 0.00111169 0 0)
(0.0127128 0.000172146 0 0.000903935 0 0)
(0.0118714 0.000117582 0 0.000788942 0 0)
(0.01166 8.42633e-06 0 0.000724013 0 0)
(0.0122488 -0.000209262 0 0.000681847 0 0)
(0.0138686 -0.000618911 0 0.000691282 0 0)
(0.0168077 -0.00114065 0 0.000692172 0 0)
(0.0218605 -0.00210405 0 0.000821079 0 0)
(0.0295912 -0.00314862 0 0.000899128 0 0)
(0.0425793 -0.00557319 0 0.00131087 0 0)
(0.0614744 -0.00805978 0 0.00162949 0 0)
(0.0948498 -0.014731 0 0.00290162 0 0)
(0.142174 -0.0222861 0 0.00431096 0 0)
(0.236078 -0.0428015 0 0.00875598 0 0)
(0.364352 -0.0744845 0 0.0164573 0 0)
(0.648373 -0.154574 0 0.0418074 0 0)
(0.0292867 0.000542465 0 0.00393572 0 0)
(0.0185245 0.000738471 0 0.00209877 0 0)
(0.0152672 0.000437233 0 0.00142918 0 0)
(0.0138895 0.000168377 0 0.00114 0 0)
(0.0130321 -8.54221e-06 0 0.000988273 0 0)
(0.0127914 -0.000165118 0 0.000912456 0 0)
(0.0132641 -0.000397868 0 0.000897654 0 0)
(0.0145061 -0.000776963 0 0.000925895 0 0)
(0.0166669 -0.00139841 0 0.001037 0 0)
(0.020059 -0.00230705 0 0.00122041 0 0)
(0.0251666 -0.00378264 0 0.00159405 0 0)
(0.0328349 -0.00592841 0 0.00216755 0 0)
(0.0442422 -0.00956455 0 0.00329897 0 0)
(0.0613348 -0.0151207 0 0.00516165 0 0)
(0.0871462 -0.0248675 0 0.00903342 0 0)
(0.125514 -0.0418119 0 0.0165741 0 0)
(0.182232 -0.0727653 0 0.0334568 0 0)
(0.248047 -0.138458 0 0.088115 0 0)
(0.0274611 0.000472732 0 0.00463396 0 0)
(0.0166482 0.00040454 0 0.00257728 0 0)
(0.013754 6.8926e-05 0 0.00181458 0 0)
(0.0127053 -0.000174491 0 0.00150858 0 0)
(0.0120301 -0.000354307 0 0.00137151 0 0)
(0.0118474 -0.000577432 0 0.00132249 0 0)
(0.0123368 -0.000927924 0 0.00133643 0 0)
(0.0136422 -0.00148052 0 0.00142562 0 0)
(0.0159147 -0.00230272 0 0.00161995 0 0)
(0.0194518 -0.00351829 0 0.0019602 0 0)
(0.0245849 -0.00534562 0 0.00256125 0 0)
(0.0321319 -0.00809503 0 0.00351696 0 0)
(0.0428043 -0.0124723 0 0.00526939 0 0)
(0.058347 -0.0191328 0 0.00814116 0 0)
(0.0797228 -0.030423 0 0.0139871 0 0)
(0.109073 -0.0480452 0 0.0244761 0 0)
(0.144577 -0.0792082 0 0.0490597 0 0)
(0.179376 -0.124703 0 0.0961482 0 0)
(0.0306624 0.000287508 0 0.00477428 0 0)
(0.0185861 0.000628405 0 0.00274737 0 0)
(0.0148261 0.000314916 0 0.00191979 0 0)
(0.0135187 2.37971e-05 0 0.00160288 0 0)
(0.0127602 -0.000169434 0 0.00148888 0 0)
(0.0124549 -0.000393194 0 0.00149125 0 0)
(0.0127369 -0.000757631 0 0.00158204 0 0)
(0.0137276 -0.00135385 0 0.00177261 0 0)
(0.015598 -0.00226937 0 0.00210113 0 0)
(0.0185926 -0.00364671 0 0.00265012 0 0)
(0.0231304 -0.0057094 0 0.00353296 0 0)
(0.0297767 -0.00886191 0 0.00499215 0 0)
(0.0394124 -0.0136733 0 0.00740227 0 0)
(0.0528514 -0.0211936 0 0.011595 0 0)
(0.0712565 -0.0328481 0 0.0189719 0 0)
(0.0941514 -0.0511953 0 0.0329286 0 0)
(0.120588 -0.0784712 0 0.058331 0 0)
(0.143887 -0.115008 0 0.104774 0 0)
(0.0286461 0.00023467 0 0.0052143 0 0)
(0.0170312 7.69925e-05 0 0.00307556 0 0)
(0.0140796 -0.000195427 0 0.00215843 0 0)
(0.0131594 -0.000489569 0 0.00185394 0 0)
(0.0126559 -0.000760167 0 0.0017832 0 0)
(0.0126641 -0.00107924 0 0.00184159 0 0)
(0.013272 -0.00154351 0 0.00200868 0 0)
(0.0144973 -0.00225165 0 0.00230698 0 0)
(0.0164453 -0.00332197 0 0.00279995 0 0)
(0.0193349 -0.00491668 0 0.00358173 0 0)
(0.0235367 -0.00729972 0 0.00482692 0 0)
(0.0295117 -0.0108374 0 0.00680889 0 0)
(0.0378952 -0.0161414 0 0.0100422 0 0)
(0.0491394 -0.0240354 0 0.0154151 0 0)
(0.0637115 -0.0357717 0 0.0245298 0 0)
(0.0807854 -0.0528179 0 0.0402882 0 0)
(0.0991579 -0.0760086 0 0.0665756 0 0)
(0.114358 -0.104548 0 0.109925 0 0)
(0.0276715 0.000400584 0 0.00524232 0 0)
(0.0169437 0.000456834 0 0.00335215 0 0)
(0.0142327 9.01192e-05 0 0.00232674 0 0)
(0.0134733 -0.000314219 0 0.00195915 0 0)
(0.0129503 -0.000665303 0 0.00189063 0 0)
(0.0126763 -0.00107648 0 0.00201078 0 0)
(0.0128124 -0.00164645 0 0.00229028 0 0)
(0.0135046 -0.00246036 0 0.00274816 0 0)
(0.0149411 -0.00363527 0 0.00345176 0 0)
(0.0173395 -0.00534873 0 0.00453315 0 0)
(0.0209699 -0.0078694 0 0.0061965 0 0)
(0.0261098 -0.011571 0 0.00879663 0 0)
(0.0331103 -0.0169729 0 0.0128894 0 0)
(0.0421101 -0.0247674 0 0.0194814 0 0)
(0.0531638 -0.0357802 0 0.030053 0 0)
(0.0653868 -0.0507648 0 0.0471749 0 0)
(0.0777047 -0.069782 0 0.0736731 0 0)
(0.0871657 -0.091452 0 0.113736 0 0)
(0.0290244 -0.00022162 0 0.00608713 0 0)
(0.017862 4.13435e-05 0 0.00401012 0 0)
(0.0148376 -0.000254501 0 0.00290923 0 0)
(0.0139311 -0.000625282 0 0.00252418 0 0)
(0.0133437 -0.000907221 0 0.00247894 0 0)
(0.013084 -0.00125361 0 0.00265344 0 0)
(0.013269 -0.00181102 0 0.00301463 0 0)
(0.0139762 -0.00267337 0 0.00359837 0 0)
(0.0153288 -0.00394936 0 0.00450015 0 0)
(0.0174774 -0.00580231 0 0.00588316 0 0)
(0.0206292 -0.00847524 0 0.00798492 0 0)
(0.0249666 -0.012292 0 0.0112046 0 0)
(0.0307193 -0.0176798 0 0.0161238 0 0)
(0.0378449 -0.0251375 0 0.0237488 0 0)
(0.0462412 -0.0351703 0 0.0353822 0 0)
(0.0550141 -0.0480542 0 0.0531778 0 0)
(0.0634016 -0.0634335 0 0.0791008 0 0)
(0.0693585 -0.0798039 0 0.116116 0 0)
(0.0298592 0.000373662 0 0.00632057 0 0)
(0.0186354 0.000368033 0 0.00431011 0 0)
(0.0155919 -3.72445e-06 0 0.00306506 0 0)
(0.0144619 -0.000476545 0 0.00263799 0 0)
(0.0137128 -0.000870888 0 0.00262813 0 0)
(0.0134603 -0.00128931 0 0.00287996 0 0)
(0.0137342 -0.00188942 0 0.00336724 0 0)
(0.0144897 -0.00279712 0 0.00413821 0 0)
(0.0157576 -0.00413286 0 0.00530031 0 0)
(0.0176334 -0.00605271 0 0.00703884 0 0)
(0.0202656 -0.00877447 0 0.00961974 0 0)
(0.0237804 -0.0125806 0 0.0134749 0 0)
(0.028288 -0.0178029 0 0.0191921 0 0)
(0.0336889 -0.0247735 0 0.0277257 0 0)
(0.0397452 -0.0337303 0 0.0401937 0 0)
(0.045794 -0.0446269 0 0.0583194 0 0)
(0.0511727 -0.0568637 0 0.0834347 0 0)
(0.0547302 -0.0690695 0 0.117489 0 0)
(0.02933 -0.000165577 0 0.00611139 0 0)
(0.017936 -8.80025e-06 0 0.0044275 0 0)
(0.0149466 -0.000356383 0 0.00336316 0 0)
(0.0141575 -0.000696327 0 0.00302051 0 0)
(0.0136952 -0.000957049 0 0.00309719 0 0)
(0.0135242 -0.00130546 0 0.00344409 0 0)
(0.01369 -0.00187334 0 0.00404559 0 0)
(0.0141957 -0.00276058 0 0.0049773 0 0)
(0.0151027 -0.00407357 0 0.00637468 0 0)
(0.0164976 -0.0059446 0 0.00844419 0 0)
(0.0184787 -0.0085448 0 0.0114631 0 0)
(0.0210805 -0.0120818 0 0.0158641 0 0)
(0.0242963 -0.0167712 0 0.0222044 0 0)
(0.0279408 -0.0227831 0 0.0313356 0 0)
(0.0317424 -0.0301326 0 0.0441606 0 0)
(0.0351584 -0.0385991 0 0.0620264 0 0)
(0.0377836 -0.0474769 0 0.0857323 0 0)
(0.0389565 -0.0556356 0 0.11659 0 0)
(0.0289778 1.66106e-05 0 0.00697135 0 0)
(0.0180582 0.00012661 0 0.00524793 0 0)
(0.0154191 -0.00047422 0 0.00411994 0 0)
(0.0149741 -0.00110481 0 0.003728 0 0)
(0.0146962 -0.00154541 0 0.00381489 0 0)
(0.0145501 -0.00198001 0 0.00425471 0 0)
(0.0147243 -0.00262379 0 0.00502022 0 0)
(0.0152903 -0.00361477 0 0.00617897 0 0)
(0.0162459 -0.00504621 0 0.00786822 0 0)
(0.0175598 -0.00700392 0 0.0103039 0 0)
(0.0192391 -0.00959961 0 0.013771 0 0)
(0.0212507 -0.0129508 0 0.0186889 0 0)
(0.0235895 -0.0171743 0 0.0255558 0 0)
(0.0260327 -0.0222779 0 0.0351033 0 0)
(0.028414 -0.0281621 0 0.0480067 0 0)
(0.0302773 -0.0344364 0 0.0652918 0 0)
(0.0315522 -0.0404924 0 0.0873442 0 0)
(0.0317859 -0.0452993 0 0.115096 0 0)
(0.0273845 7.75268e-05 0 0.00698482 0 0)
(0.016919 -4.84503e-05 0 0.00523682 0 0)
(0.0141873 -0.000346603 0 0.004052 0 0)
(0.0133978 -0.000688181 0 0.0036595 0 0)
(0.0128324 -0.000963603 0 0.00381458 0 0)
(0.0124751 -0.00131461 0 0.00434193 0 0)
(0.0124265 -0.00188189 0 0.00519863 0 0)
(0.012695 -0.00275446 0 0.00646793 0 0)
(0.0132556 -0.00400044 0 0.0083119 0 0)
(0.0140737 -0.00568908 0 0.0109645 0 0)
(0.0151465 -0.00790996 0 0.0147036 0 0)
(0.0164417 -0.0107482 0 0.0199197 0 0)
(0.0179397 -0.0142639 0 0.0270381 0 0)
(0.0194921 -0.0183984 0 0.0366745 0 0)
(0.0209516 -0.0229859 0 0.0493109 0 0)
(0.0220619 -0.0276528 0 0.0657319 0 0)
(0.0227382 -0.0318303 0 0.0860339 0 0)
(0.0228959 -0.0347672 0 0.110938 0 0)
(0.029293 -0.00048272 0 0.00784236 0 0)
(0.0178115 -0.000756312 0 0.00622588 0 0)
(0.0147668 -0.00141399 0 0.00494738 0 0)
(0.0140306 -0.00197975 0 0.00455134 0 0)
(0.0136441 -0.00228345 0 0.00474521 0 0)
(0.0134214 -0.00250329 0 0.00535835 0 0)
(0.0133538 -0.00286464 0 0.00635911 0 0)
(0.013455 -0.00353284 0 0.00782448 0 0)
(0.0137669 -0.00459526 0 0.00990598 0 0)
(0.0143105 -0.00608277 0 0.0128291 0 0)
(0.0150601 -0.00800907 0 0.0168554 0 0)
(0.0159332 -0.0103765 0 0.0223383 0 0)
(0.0168271 -0.0131679 0 0.0296344 0 0)
(0.0176086 -0.0162655 0 0.0392439 0 0)
(0.0181523 -0.019472 0 0.0514952 0 0)
(0.0184094 -0.0224429 0 0.066975 0 0)
(0.0183778 -0.0246904 0 0.0856078 0 0)
(0.018175 -0.0256514 0 0.10794 0 0)
(0.0306017 -0.000505219 0 0.00820594 0 0)
(0.0193709 -0.00084364 0 0.00681558 0 0)
(0.0162606 -0.00119506 0 0.00544274 0 0)
(0.0154763 -0.00152939 0 0.00493821 0 0)
(0.0149283 -0.0017358 0 0.00509054 0 0)
(0.0144442 -0.0019422 0 0.00575308 0 0)
(0.0141463 -0.0023115 0 0.00688493 0 0)
(0.0140628 -0.00294003 0 0.00853172 0 0)
(0.0141671 -0.00386104 0 0.010816 0 0)
(0.0144133 -0.00507225 0 0.0139409 0 0)
(0.0147417 -0.0065647 0 0.0181395 0 0)
(0.0150645 -0.00830736 0 0.0237181 0 0)
(0.0152836 -0.0102385 0 0.0309521 0 0)
(0.0153054 -0.0122066 0 0.0402368 0 0)
(0.0150737 -0.0140136 0 0.0517534 0 0)
(0.0146126 -0.0153461 0 0.065955 0 0)
(0.0140327 -0.0158279 0 0.0826122 0 0)
(0.0134877 -0.0150288 0 0.102195 0 0)
(0.0292456 0.000569696 0 0.00893203 0 0)
(0.0170371 7.58514e-05 0 0.00772055 0 0)
(0.0136276 -0.000628939 0 0.00623908 0 0)
(0.0127856 -0.00112068 0 0.00581471 0 0)
(0.0121695 -0.00130051 0 0.00612242 0 0)
(0.0115453 -0.00140574 0 0.00691685 0 0)
(0.0110798 -0.00166414 0 0.00813586 0 0)
(0.0108672 -0.00217504 0 0.00985588 0 0)
(0.0108963 -0.00292725 0 0.0122304 0 0)
(0.0110715 -0.00385344 0 0.0154621 0 0)
(0.0112736 -0.00489168 0 0.0197383 0 0)
(0.0114113 -0.00597327 0 0.0252843 0 0)
(0.0114555 -0.00702363 0 0.0322757 0 0)
(0.0114068 -0.00788599 0 0.0409939 0 0)
(0.0112912 -0.0083911 0 0.0514871 0 0)
(0.0111522 -0.00827284 0 0.0640818 0 0)
(0.0111629 -0.00727286 0 0.0784616 0 0)
(0.011362 -0.00507614 0 0.0950163 0 0)
(0.0284402 0.000132584 0 0.00969475 0 0)
(0.0170695 -0.00025843 0 0.0087074 0 0)
(0.0138368 -0.000887184 0 0.00723241 0 0)
(0.0129406 -0.00124374 0 0.00663833 0 0)
(0.012382 -0.00127104 0 0.00682097 0 0)
(0.0118875 -0.0012101 0 0.00763063 0 0)
(0.01151 -0.00126072 0 0.00896019 0 0)
(0.0112411 -0.00148343 0 0.0108076 0 0)
(0.0110383 -0.00182577 0 0.0132661 0 0)
(0.0108565 -0.00218959 0 0.0164963 0 0)
(0.0106716 -0.00249459 0 0.0206491 0 0)
(0.0104845 -0.00266866 0 0.0258987 0 0)
(0.0103382 -0.00264201 0 0.0323452 0 0)
(0.0102823 -0.00228992 0 0.0401662 0 0)
(0.0103531 -0.00147741 0 0.0493159 0 0)
(0.0106415 -2.44333e-05 0 0.0600239 0 0)
(0.0112459 0.0022509 0 0.0719472 0 0)
(0.0123082 0.00552071 0 0.0854042 0 0)
(0.0304579 0.000472343 0 0.0101974 0 0)
(0.0187135 -0.000200789 0 0.0093386 0 0)
(0.014568 -0.000964109 0 0.00760968 0 0)
(0.0129948 -0.00115566 0 0.00699317 0 0)
(0.0120455 -0.000901691 0 0.00722456 0 0)
(0.0113712 -0.000533436 0 0.0080523 0 0)
(0.0108484 -0.000278851 0 0.00936367 0 0)
(0.0103972 -0.000175621 0 0.0111678 0 0)
(0.0100321 -0.000134967 0 0.0135482 0 0)
(0.00978169 -3.35966e-05 0 0.0166285 0 0)
(0.00963087 0.000221779 0 0.0205048 0 0)
(0.00957051 0.000717862 0 0.0252767 0 0)
(0.00961765 0.00152311 0 0.0309713 0 0)
(0.00983468 0.00275433 0 0.0376869 0 0)
(0.0102693 0.00449 0 0.0453212 0 0)
(0.011025 0.0068711 0 0.0540476 0 0)
(0.0121986 0.00994695 0 0.0635291 0 0)
(0.0138761 0.0138757 0 0.0740416 0 0)
(0.0284497 0.000953126 0 0.0105828 0 0)
(0.0162382 1.06959e-05 0 0.00991316 0 0)
(0.0122909 -0.000912749 0 0.00833221 0 0)
(0.0107417 -0.00108684 0 0.00764456 0 0)
(0.009693 -0.000808222 0 0.00774192 0 0)
(0.00892965 -0.0004153 0 0.00844975 0 0)
(0.00843952 -9.39399e-05 0 0.00962901 0 0)
(0.00817323 0.000147166 0 0.011233 0 0)
(0.00810765 0.000414727 0 0.0132913 0 0)
(0.00819954 0.000842166 0 0.015879 0 0)
(0.00838565 0.00152034 0 0.0190525 0 0)
(0.00864908 0.00251548 0 0.0228739 0 0)
(0.00904027 0.00386204 0 0.0273388 0 0)
(0.00965518 0.00563299 0 0.032501 0 0)
(0.0105686 0.0078618 0 0.0382491 0 0)
(0.0119043 0.0106464 0 0.0447049 0 0)
(0.0137109 0.0139822 0 0.0515973 0 0)
(0.0161203 0.0179892 0 0.0591161 0 0)
(0.0268655 0.000360597 0 0.0102996 0 0)
(0.0165886 0.00031461 0 0.00969787 0 0)
(0.0130029 -0.000126678 0 0.00807386 0 0)
(0.0110168 -8.82898e-05 0 0.00730467 0 0)
(0.0097165 0.000278562 0 0.0073257 0 0)
(0.00891872 0.00068632 0 0.00791049 0 0)
(0.00847213 0.00104004 0 0.00891188 0 0)
(0.00828838 0.00140288 0 0.0102676 0 0)
(0.0083592 0.00190499 0 0.0119625 0 0)
(0.00865326 0.00265652 0 0.0140137 0 0)
(0.0091079 0.00370415 0 0.0164361 0 0)
(0.00971086 0.00506783 0 0.0192615 0 0)
(0.0105034 0.00674652 0 0.022485 0 0)
(0.0115784 0.00877454 0 0.0261405 0 0)
(0.0129869 0.0111537 0 0.0301379 0 0)
(0.0148336 0.0139436 0 0.0345667 0 0)
(0.0171427 0.0171165 0 0.0392248 0 0)
(0.020006 0.0207522 0 0.0442312 0 0)
(0.0286465 0.000558894 0 0.0108388 0 0)
(0.015987 0.000989209 0 0.00909002 0 0)
(0.0121727 0.000411946 0 0.00694104 0 0)
(0.0108206 0.000243111 0 0.00611028 0 0)
(0.0101537 0.000460599 0 0.00597827 0 0)
(0.00991177 0.000768382 0 0.00628356 0 0)
(0.00977931 0.00107976 0 0.00692889 0 0)
(0.00961909 0.00146482 0 0.00784899 0 0)
(0.00953699 0.00203375 0 0.00900765 0 0)
(0.00966545 0.00286505 0 0.010406 0 0)
(0.0100615 0.00398281 0 0.0120515 0 0)
(0.010757 0.00538437 0 0.0139536 0 0)
(0.0117753 0.00705208 0 0.0160927 0 0)
(0.0131606 0.00899519 0 0.0184794 0 0)
(0.0149136 0.0112103 0 0.0210484 0 0)
(0.0170963 0.0137237 0 0.0238607 0 0)
(0.0197086 0.0165256 0 0.0268012 0 0)
(0.022795 0.0196428 0 0.0299285 0 0)
(0.0276053 0.000271746 0 0.0100707 0 0)
(0.0159992 0.000522358 0 0.00841012 0 0)
(0.0129997 0.000240727 0 0.00653036 0 0)
(0.0119084 0.000173208 0 0.00588723 0 0)
(0.0112525 0.000354963 0 0.00581678 0 0)
(0.0109709 0.000675494 0 0.00604667 0 0)
(0.0109166 0.00111456 0 0.00648982 0 0)
(0.0109966 0.0017053 0 0.00711749 0 0)
(0.0112601 0.00247113 0 0.00792901 0 0)
(0.0117721 0.00341209 0 0.0089346 0 0)
(0.0125642 0.00452442 0 0.0101305 0 0)
(0.0136697 0.00582591 0 0.0115049 0 0)
(0.015127 0.00734063 0 0.0130272 0 0)
(0.0169811 0.00910612 0 0.0146929 0 0)
(0.0192338 0.0111244 0 0.0164516 0 0)
(0.021926 0.0134004 0 0.0183631 0 0)
(0.025056 0.0159091 0 0.0203532 0 0)
(0.0286285 0.0186408 0 0.0224569 0 0)
(0.0292509 0.000668986 0 0.0098089 0 0)
(0.017803 0.000711577 0 0.00834468 0 0)
(0.0147638 0.000464355 0 0.0063956 0 0)
(0.0134946 0.000558721 0 0.00549569 0 0)
(0.0126043 0.000835894 0 0.00519943 0 0)
(0.0121648 0.00115698 0 0.00525424 0 0)
(0.0120449 0.00153349 0 0.00549755 0 0)
(0.0121269 0.00201758 0 0.00585103 0 0)
(0.0124414 0.00263881 0 0.00631361 0 0)
(0.0130525 0.0034125 0 0.00690812 0 0)
(0.0139797 0.00435268 0 0.00763884 0 0)
(0.0152351 0.00547946 0 0.00849845 0 0)
(0.0168324 0.00680097 0 0.00946572 0 0)
(0.0188118 0.00833281 0 0.010537 0 0)
(0.021182 0.010062 0 0.0116747 0 0)
(0.0239975 0.0119844 0 0.0129188 0 0)
(0.0272756 0.0140846 0 0.0142162 0 0)
(0.0310087 0.0163511 0 0.0155695 0 0)
(0.029248 0.000840991 0 0.00970804 0 0)
(0.0176931 0.000479727 0 0.00780584 0 0)
(0.014451 0.000159491 0 0.00580107 0 0)
(0.0132956 0.000117657 0 0.00490964 0 0)
(0.0126143 0.000285183 0 0.00464256 0 0)
(0.0122694 0.000568833 0 0.00466876 0 0)
(0.0121442 0.00093032 0 0.00482923 0 0)
(0.0121948 0.00137366 0 0.00506971 0 0)
(0.0125018 0.0019075 0 0.00538776 0 0)
(0.0131443 0.00254737 0 0.00579481 0 0)
(0.0141356 0.00331728 0 0.00629283 0 0)
(0.0154729 0.00424496 0 0.00687603 0 0)
(0.0171741 0.00534594 0 0.00753007 0 0)
(0.0192797 0.00663156 0 0.00824901 0 0)
(0.0217993 0.00808921 0 0.00900459 0 0)
(0.0247618 0.0097035 0 0.00983269 0 0)
(0.0281762 0.0114582 0 0.0106965 0 0)
(0.0319815 0.0133284 0 0.0115834 0 0)
(0.0299379 0.000252009 0 0.00784053 0 0)
(0.0187907 0.000381147 0 0.00592072 0 0)
(0.0156653 0.000307634 0 0.00428919 0 0)
(0.0142214 0.000367783 0 0.00356669 0 0)
(0.013278 0.000563941 0 0.00326394 0 0)
(0.0129506 0.000869024 0 0.00316983 0 0)
(0.0130877 0.00124331 0 0.00319638 0 0)
(0.0135047 0.00167234 0 0.00330253 0 0)
(0.0141735 0.00216297 0 0.00347327 0 0)
(0.0151295 0.00273177 0 0.00370522 0 0)
(0.016389 0.00339594 0 0.00399755 0 0)
(0.0179687 0.00417392 0 0.00434727 0 0)
(0.0199083 0.00507669 0 0.00474525 0 0)
(0.0222624 0.00611413 0 0.00518507 0 0)
(0.0250376 0.00728042 0 0.00564608 0 0)
(0.0282763 0.00857512 0 0.00615361 0 0)
(0.0319706 0.00998713 0 0.00668492 0 0)
(0.036065 0.0115046 0 0.00723376 0 0)
(0.0274528 8.24206e-05 0 0.00750143 0 0)
(0.0169559 0.000423606 0 0.00564858 0 0)
(0.0144392 0.000429634 0 0.00419385 0 0)
(0.013564 0.000420788 0 0.0035188 0 0)
(0.0128767 0.000484153 0 0.00327372 0 0)
(0.0124566 0.000656921 0 0.00322875 0 0)
(0.0123464 0.000904102 0 0.00326111 0 0)
(0.012518 0.00119705 0 0.00332055 0 0)
(0.0129965 0.00153759 0 0.00340256 0 0)
(0.0138089 0.00194799 0 0.00352038 0 0)
(0.014941 0.00245268 0 0.00368256 0 0)
(0.0163821 0.00306914 0 0.00388675 0 0)
(0.0181553 0.00380054 0 0.00412546 0 0)
(0.0203142 0.00464681 0 0.00439501 0 0)
(0.0228702 0.00559223 0 0.00467722 0 0)
(0.0258812 0.00663315 0 0.00499465 0 0)
(0.0293446 0.00775901 0 0.00532875 0 0)
(0.0332353 0.00895826 0 0.00565857 0 0)
(0.029672 9.14798e-05 0 0.00651791 0 0)
(0.0190571 7.32965e-05 0 0.00436782 0 0)
(0.0162947 -3.06329e-05 0 0.00320114 0 0)
(0.0152239 -1.97933e-06 0 0.00267378 0 0)
(0.0143848 9.38096e-05 0 0.0024442 0 0)
(0.0138621 0.000235966 0 0.00235736 0 0)
(0.0136853 0.000400206 0 0.00231768 0 0)
(0.0137871 0.00059119 0 0.00229307 0 0)
(0.0141702 0.000829234 0 0.00228754 0 0)
(0.0148683 0.00112584 0 0.00231177 0 0)
(0.0158928 0.00148286 0 0.00236941 0 0)
(0.0172539 0.00190442 0 0.00245733 0 0)
(0.0189744 0.00239776 0 0.00256988 0 0)
(0.0210935 0.00297392 0 0.00270307 0 0)
(0.0236035 0.00363383 0 0.00284486 0 0)
(0.0265392 0.00437648 0 0.00300963 0 0)
(0.0299075 0.00519588 0 0.00318563 0 0)
(0.0336377 0.00607716 0 0.0033609 0 0)
(0.0279344 -0.000248559 0 0.00561292 0 0)
(0.0173669 -0.000208201 0 0.0037627 0 0)
(0.014958 -5.61961e-05 0 0.00272749 0 0)
(0.0140699 0.000106641 0 0.00225097 0 0)
(0.0133789 0.00022678 0 0.00204177 0 0)
(0.0130514 0.000340773 0 0.00195017 0 0)
(0.0131241 0.00046179 0 0.00189812 0 0)
(0.0134966 0.0006022 0 0.00185942 0 0)
(0.0141321 0.000778188 0 0.00183479 0 0)
(0.0150362 0.000998954 0 0.00183026 0 0)
(0.0162149 0.0012697 0 0.00184764 0 0)
(0.017697 0.00159915 0 0.00188467 0 0)
(0.0195418 0.00199515 0 0.00193861 0 0)
(0.021814 0.00246162 0 0.00200752 0 0)
(0.0245284 0.00299106 0 0.00208294 0 0)
(0.0277157 0.00357258 0 0.0021771 0 0)
(0.0313705 0.004196 0 0.00227975 0 0)
(0.0354063 0.00485518 0 0.00237682 0 0)
(0.0297525 -0.000134801 0 0.00499603 0 0)
(0.0189277 -0.000381416 0 0.00294036 0 0)
(0.0160326 -0.000218526 0 0.00212194 0 0)
(0.0148741 -6.61621e-05 0 0.00177225 0 0)
(0.0140103 -5.14558e-06 0 0.00160439 0 0)
(0.0135256 9.63454e-06 0 0.00150431 0 0)
(0.013503 3.91275e-05 0 0.00142045 0 0)
(0.0138646 0.000127481 0 0.00134208 0 0)
(0.0145304 0.000278083 0 0.00127454 0 0)
(0.0154564 0.000465837 0 0.00122295 0 0)
(0.0166363 0.000667911 0 0.00118795 0 0)
(0.0181175 0.00088136 0 0.00116758 0 0)
(0.0199776 0.0011172 0 0.00116095 0 0)
(0.0222841 0.00139079 0 0.00116754 0 0)
(0.0250373 0.00170871 0 0.00118267 0 0)
(0.0282591 0.00206936 0 0.0012138 0 0)
(0.0319338 0.00247118 0 0.00125462 0 0)
(0.0359652 0.00291082 0 0.00129605 0 0)
(0.0300614 2.42034e-06 0 0.00404744 0 0)
(0.0205273 -0.000296154 0 0.0022978 0 0)
(0.0175545 -0.000292599 0 0.00169592 0 0)
(0.016053 -0.000200612 0 0.00142977 0 0)
(0.0152402 -0.000157081 0 0.0012747 0 0)
(0.015072 -0.000192151 0 0.00116461 0 0)
(0.0152476 -0.00026119 0 0.00107749 0 0)
(0.0155507 -0.000296454 0 0.00100725 0 0)
(0.0160168 -0.000267 0 0.000949778 0 0)
(0.0167867 -0.000186415 0 0.000901604 0 0)
(0.0179533 -7.95834e-05 0 0.000861125 0 0)
(0.0195445 4.48833e-05 0 0.000828245 0 0)
(0.021553 0.000195472 0 0.000803594 0 0)
(0.0239867 0.000384975 0 0.000786363 0 0)
(0.0268061 0.000620406 0 0.00077471 0 0)
(0.0300786 0.000899005 0 0.000773688 0 0)
(0.0338171 0.0012214 0 0.000776585 0 0)
(0.0379879 0.00157259 0 0.000778189 0 0)
(0.0279087 -0.000133497 0 0.00405453 0 0)
(0.0176619 7.07577e-05 0 0.00228944 0 0)
(0.0153786 4.46631e-05 0 0.00169858 0 0)
(0.0142401 2.97126e-05 0 0.00138339 0 0)
(0.0131836 -3.37135e-06 0 0.00117849 0 0)
(0.0126274 -2.53236e-05 0 0.00103246 0 0)
(0.0126601 -1.18016e-05 0 0.000922139 0 0)
(0.0131576 2.83725e-05 0 0.00083547 0 0)
(0.0140597 7.03633e-05 0 0.000765462 0 0)
(0.0153573 9.69685e-05 0 0.000707478 0 0)
(0.0170393 0.000109527 0 0.000658468 0 0)
(0.0191256 0.000122147 0 0.000616592 0 0)
(0.0216767 0.000150509 0 0.000580963 0 0)
(0.0247854 0.000203062 0 0.000549623 0 0)
(0.0285248 0.000282245 0 0.000520784 0 0)
(0.0330253 0.000380602 0 0.000499871 0 0)
(0.0382957 0.00049367 0 0.00047968 0 0)
(0.0443488 0.000615883 0 0.000452672 0 0)
(0.0112585 -0.00602908 1.16472e-22 0.00986698 -1.22047e-22 5.90112e-38)
(0.0558512 -0.00422791 -2.61006e-22 0.0130283 4.30596e-23 5.81822e-38)
(0.119688 -0.00182153 0 0.0247072 0 0)
(0.194105 -0.0040706 0 0.0485313 0 0)
(0.254656 -0.0205862 0 0.0759626 0 0)
(0.344361 -0.0588423 3.90879e-22 0.100723 6.87078e-23 5.48034e-38)
(0.504781 -0.116746 0 0.121217 0 0)
(0.764981 -0.186992 0 0.130267 0 0)
(1.13287 -0.252451 0 0.126108 0 0)
(1.59473 -0.302119 0 0.11359 0 0)
(2.12936 -0.332016 -2.2632e-22 0.0967225 2.29317e-24 5.07522e-38)
(2.70269 -0.336118 0 0.0761215 0 0)
(3.27138 -0.313284 0 0.0582846 0 0)
(3.79509 -0.273689 0 0.0456063 0 0)
(4.24828 -0.224775 0 0.0367338 0 0)
(4.61416 -0.168771 -1.18512e-22 0.0308057 7.65797e-23 4.69062e-38)
(4.88099 -0.108508 0 0.0275319 0 0)
(5.04485 -0.0487416 0 0.027346 0 0)
(5.11064 0.00472266 0 0.030024 0 0)
(5.08953 0.0469402 0 0.0346159 0 0)
(5.00195 0.0749539 0 0.0406632 0 0)
(4.87084 0.0906499 0 0.0478015 0 0)
(4.71578 0.0991609 0 0.0560498 0 0)
(4.5389 0.100241 -1.38599e-21 0.0660096 1.82937e-22 4.11727e-38)
(4.37158 0.0894381 1.63097e-21 0.0755425 -1.69755e-22 4.04914e-38)
(4.2183 0.0688354 -1.87068e-21 0.0837511 1.31033e-22 3.98176e-38)
(4.12128 0.045948 -2.09501e-21 0.101857 8.74943e-23 3.91513e-38)
(4.08212 0.000494407 0 0.108369 0 0)
(4.13279 -0.0249432 0 0.102055 0 0)
(4.23711 -0.0619444 2.69812e-21 0.0992351 -2.65668e-25 3.71972e-38)
(4.42678 -0.124617 2.91685e-21 0.107851 -9.30644e-23 3.65606e-38)
(4.72101 -0.181387 0 0.109002 0 0)
(5.11846 -0.223342 0 0.107024 0 0)
(5.59285 -0.246646 3.77459e-21 0.102486 -1.18349e-22 3.46971e-38)
(6.1078 -0.254871 0 0.100771 0 0)
(6.63715 -0.255485 0 0.101532 0 0)
(7.1613 -0.255199 -4.77752e-21 0.104933 1.10729e-22 3.29037e-38)
(7.67769 -0.262176 0 0.112149 0 0)
(8.20801 -0.271 -5.47808e-21 0.116803 1.0829e-22 3.17468e-38)
(8.73989 -0.284681 -1.16642e-20 0.108148 2.42414e-22 1.24719e-37)
(9.30569 -0.290936 0 0.101439 0 0)
(9.87302 -0.29082 0 0.0978667 0 0)
(10.4791 -0.314697 0 0.0766836 0 0)
(11.1004 -0.316051 0 0.0773841 0 0)
(11.6761 -0.300047 0 0.0845652 0 0)
(12.2625 -0.2991 -1.51704e-20 0.0948289 2.12111e-22 1.1173e-37)
(12.789 -0.308556 -1.54737e-20 0.108724 1.60151e-22 1.09669e-37)
(13.3274 -0.315287 -1.56951e-20 0.11855 1.35792e-22 1.07636e-37)
(13.8087 -0.289663 0 0.122988 0 0)
(14.2986 -0.320308 1.62101e-20 0.129837 -2.91562e-22 1.03657e-37)
(14.8866 -0.345409 0 0.107435 0 0)
(15.4772 -0.335449 -1.67411e-20 0.0871749 2.78948e-22 9.97948e-38)
(16.0132 -0.317821 -1.70456e-20 0.0909452 3.12336e-22 9.79066e-38)
(16.5117 -0.259283 0 0.0861946 0 0)
(16.9368 -0.271924 0 0.10974 0 0)
(17.4454 -0.275422 0 0.102898 0 0)
(17.9643 -0.288227 -1.87428e-20 0.10534 2.27911e-22 9.06313e-38)
(18.5913 -0.298757 0 0.0884079 0 0)
(19.2718 -0.303376 0 0.0807213 0 0)
(19.9487 -0.2984 0 0.0790481 0 0)
(20.5995 -0.280806 0 0.0815542 0 0)
(21.2487 -0.282205 0 0.0830386 0 0)
(21.8999 -0.284319 0 0.0772566 0 0)
(22.5165 -0.285153 0 0.0667933 0 0)
(23.1708 -0.28833 0 0.0633032 0 0)
(23.8112 -0.269046 2.51011e-20 0.0590591 -3.42247e-22 7.58315e-38)
(24.3751 -0.236809 0 0.055658 0 0)
(24.8209 -0.207461 0 0.0542288 0 0)
(25.17 -0.189874 -2.6417e-20 0.0567862 3.71994e-22 7.13539e-38)
(25.3217 -0.136127 -2.66196e-20 0.0485762 3.24534e-22 6.99095e-38)
(25.2856 -0.0969686 0 0.0474304 0 0)
(25.0603 0.0229571 2.6584e-20 0.0427509 -1.65516e-22 6.7091e-38)
(24.5387 0.0834908 -2.61485e-20 0.070891 6.20776e-23 6.57164e-38)
(24.0815 0.0844274 0 0.0759151 0 0)
(23.6344 0.0449116 2.49882e-20 0.0865463 3.92725e-23 6.30349e-38)
(23.2795 -0.0225304 0 0.0947509 0 0)
(23.0606 -0.0698474 0 0.0986236 0 0)
(22.8987 -0.111322 -2.36986e-20 0.11093 1.13111e-22 5.91786e-38)
(22.8535 -0.144803 0 0.103155 0 0)
(22.8638 -0.21915 2.29723e-20 0.0979989 -6.47072e-23 5.67159e-38)
(23.1939 -0.231249 0 0.0814781 0 0)
(23.4915 -0.270634 -2.28756e-20 0.081848 1.55599e-22 5.4337e-38)
(24.005 -0.210295 -2.29546e-20 0.0744508 1.78818e-22 5.31782e-38)
(24.0568 -0.113266 -2.31933e-20 0.0976172 2.21837e-22 5.20392e-38)
(24.331 -0.139086 -4.70782e-20 0.0881469 5.00762e-22 2.03681e-37)
(24.774 -0.145132 4.79388e-20 0.0735708 -5.28144e-22 1.99284e-37)
(25.2828 -0.155714 0 0.0620119 0 0)
(25.7731 -0.155365 0 0.0539884 0 0)
(26.2631 -0.168375 0 0.0443971 0 0)
(26.7759 -0.163851 5.17526e-20 0.0354297 -4.24417e-22 1.82462e-37)
(27.1416 -0.13483 5.24077e-20 0.0443737 -3.77877e-22 1.7844e-37)
(27.3094 -0.0945161 -5.28639e-20 0.0533168 5.26298e-22 1.74487e-37)
(27.5603 -0.0779306 0 0.0691536 0 0)
(27.4136 -0.0269722 5.29141e-20 0.0972797 -3.25255e-22 1.66787e-37)
(27.4448 -0.119539 5.20094e-20 0.111281 -2.38431e-22 1.6304e-37)
(27.8765 -0.173782 5.12546e-20 0.0923938 -2.83517e-22 1.5936e-37)
(28.4857 -0.175442 0 0.0787586 0 0)
(29.0453 -0.140867 0 0.0694588 0 0)
(29.4467 -0.100872 0 0.0651423 0 0)
(29.6214 -0.0609234 4.95722e-20 0.0614726 -2.62351e-22 1.45302e-37)
(29.608 -0.014135 0 0.049715 0 0)
(29.4092 0.0224288 0 0.0421199 0 0)
(29.1138 0.0433253 -4.64062e-20 0.0396712 2.03827e-22 1.35421e-37)
(28.5317 0.097602 0 0.0402792 0 0)
(27.7994 0.101316 0 0.0435453 0 0)
(26.9909 0.174789 -4.15754e-20 0.0532129 -7.36275e-24 1.26078e-37)
(25.9581 0.094918 0 0.0844414 0 0)
(25.3673 0.0255326 0 0.076347 0 0)
(25.0359 -0.000655831 3.65154e-20 0.0748119 -9.94682e-23 1.17245e-37)
(24.9168 -0.019697 3.6024e-20 0.0759388 -1.87848e-22 1.14412e-37)
(24.973 -0.044861 0 0.0700529 0 0)
(25.1833 -0.0616069 -3.62263e-20 0.0615464 3.32553e-22 1.08908e-37)
(25.4833 -0.0725954 0 0.0531074 0 0)
(25.8193 -0.0696804 3.71349e-20 0.0455401 -3.02761e-22 1.03613e-37)
(26.1136 -0.054008 0 0.0397972 0 0)
(26.3194 -0.0284373 3.78058e-20 0.0353549 -3.11547e-22 9.85168e-38)
(26.3926 0.000596093 3.78881e-20 0.0323277 -2.83941e-22 9.60415e-38)
(26.322 0.0277866 0 0.0300778 0 0)
(26.1097 0.0510787 0 0.0287307 0 0)
(25.7769 0.0654137 0 0.0265385 0 0)
(25.3589 0.0669921 0 0.0293029 0 0)
(25.0616 0.040916 0 0.0244696 0 0)
(24.8398 0.0453899 0 0.0353038 0 0)
(24.7477 -0.0280673 0 0.0642012 0 0)
(25.1415 -0.0977751 3.19297e-20 0.0506963 -2.04219e-22 7.78757e-38)
(25.6553 -0.108131 -3.14143e-20 0.037379 2.03155e-22 7.58012e-38)
(26.2223 -0.102362 0 0.0306643 0 0)
(26.7064 -0.0973781 0 0.026489 0 0)
(27.163 -0.0733123 0 0.0186118 0 0)
(27.4254 -0.0215011 0 0.0163323 0 0)
(27.4229 0.0251707 -6.18537e-20 0.0180292 5.99602e-22 2.64185e-37)
(27.0617 0.055853 0 0.0193211 0 0)
(26.6553 0.0825282 6.04237e-20 0.0207182 -1.45895e-22 2.4966e-37)
(26.3292 0.00488241 -5.81905e-20 0.0674912 -1.48993e-23 2.42613e-37)
(27.2797 -0.237597 0 0.101909 0 0)
(28.7731 -0.30017 0 0.0785339 0 0)
(30.5323 -0.284296 0 0.0627494 0 0)
(32.2793 -0.319021 6.49394e-20 0.0742332 -1.15211e-21 2.15863e-37)
(34.3339 -0.307417 6.94051e-20 0.0491486 -1.06527e-21 2.09533e-37)
(35.8463 -0.205757 0 0.0309827 0 0)
(36.9486 -0.115729 7.63702e-20 0.0232738 -7.57832e-22 1.97278e-37)
(37.3932 -0.0208111 7.79755e-20 0.0189448 -5.73389e-22 1.91345e-37)
(37.3545 0.0568939 -7.80501e-20 0.0170636 4.02402e-22 1.85536e-37)
(36.7713 0.130198 0 0.0159379 0 0)
(35.7448 0.193345 0 0.0153058 0 0)
(34.2734 0.252001 -6.8052e-20 0.0151274 -9.00952e-23 1.68819e-37)
(32.4169 0.302745 0 0.0155975 0 0)
(30.2009 0.345105 0 0.0169473 0 0)
(27.7088 0.37433 0 0.0190845 0 0)
(25.038 0.387893 0 0.0214762 0 0)
(22.3132 0.381414 3.0877e-20 0.0223179 2.43345e-22 1.43269e-37)
(19.6816 0.361665 2.44726e-20 0.0221785 1.22696e-22 1.38503e-37)
(17.2449 0.325702 0 0.0240104 0 0)
(15.1085 0.279076 1.58566e-20 0.0237734 -1.46757e-22 1.29304e-37)
(13.3939 0.215382 0 0.031052 0 0)
(12.4057 0.101677 0 0.0419348 0 0)
(12.2834 -0.00532377 1.41375e-20 0.041485 -4.35423e-22 1.16302e-37)