/*--------------------------------*- C++ -*----------------------------------*\
  =========                 |
  \\      /  F ield         | OpenFOAM: The Open Source CFD Toolbox
   \\    /   O peration     | Website:  https://openfoam.org
    \\  /    A nd           | Version:  6
     \\/     M anipulation  |
\*---------------------------------------------------------------------------*/
FoamFile
{
    version     2.0;
    format      ascii;
    class       volScalarField;
    location    "0.2";
    object      nut;
}
// * * * * * * * * * * * * * * * * * * * * * * * * * * * * * * * * * * * * * //

dimensions      [0 2 -1 0 0 0 0];

internalField   nonuniform List<scalar> 
12225
(
4.78156e-11
0
0
0
0
0
0
0
0
0
0
0
0
0
0
0
0
0
2.38119e-11
0
0
0
0
0
0
0
0
0
0
0
0
0
0
0
0
0
0
0
0
0
0
0
0
0
0
0
0
0
0
0
0
0
0
0
1.04607e-08
0
0
0
0
0
0
0
0
0
0
0
0
0
0
0
0
0
1.28753e-07
7.23293e-07
2.20891e-07
0
0
2.01983e-07
1.8322e-07
8.64246e-09
1.77029e-07
2.72334e-07
7.33013e-08
0
0
0
0
0
0
0
1.41141e-06
1.42014e-06
5.76075e-07
1.24072e-06
3.17866e-07
0
0
0
2.36724e-07
9.77109e-07
5.60754e-07
0
0
0
0
0
0
0
2.32746e-07
0
4.7037e-07
8.24228e-07
1.9991e-07
0
0
0
0
3.65172e-07
6.93378e-07
2.49222e-07
0
0
0
0
0
0
0
0
1.31073e-07
3.94075e-07
4.27194e-08
0
0
0
0
0
0
0
0
0
0
0
0
0
0
0
1.6372e-07
2.69338e-07
0
0
0
0
0
0
0
0
0
0
0
0
0
0
5.9814e-07
4.79119e-07
2.01244e-07
0
0
0
0
0
0
0
0
0
2.24521e-07
0
0
0
0
0
2.91606e-07
0
0
1.19479e-07
0
0
1.29167e-07
0
0
0
0
0
7.25884e-07
1.46626e-06
1.56934e-06
1.26008e-06
4.35193e-07
0
0
0
3.51928e-07
6.61847e-07
2.80139e-09
0
0
0
0
0
0
0
7.26048e-07
1.07931e-06
1.27499e-06
1.34659e-06
1.25797e-06
7.85108e-07
0
1.08134e-08
8.40009e-07
4.65866e-07
1.92763e-07
1.00604e-07
0
0
0
0
8.21319e-07
6.32692e-07
9.58968e-07
1.80478e-06
2.40265e-06
2.49103e-06
1.92547e-06
6.77635e-07
7.62064e-08
4.75655e-07
7.90867e-07
3.41564e-07
1.3334e-07
1.56944e-07
9.91264e-09
0
0
0
2.69087e-06
1.69012e-06
2.28842e-06
3.93665e-06
5.08777e-06
4.06642e-06
0
0
5.97467e-07
1.08634e-06
1.09524e-06
0
0
0
9.16128e-08
0
0
0
0
2.59076e-07
1.09945e-06
2.4075e-06
2.59544e-06
9.86055e-07
0
5.58512e-08
6.30507e-07
1.34742e-06
1.40345e-06
0
0
0
0
2.4432e-07
0
0
0
1.85484e-06
1.84933e-06
1.27611e-06
2.80276e-07
0
4.74185e-08
7.54411e-07
0
0
0
0
0
0
4.7047e-07
9.05893e-07
1.04925e-06
1.08184e-06
3.58883e-07
3.78572e-07
7.06717e-07
6.50989e-07
3.70297e-07
0
0
0
0
3.44543e-07
5.72575e-07
1.4957e-07
0
1.4885e-06
1.69198e-06
1.49428e-06
1.14684e-06
4.13068e-08
0
0
2.41624e-07
2.74312e-07
1.48967e-07
0
0
0
0
8.00365e-08
3.03706e-07
0
0
0
1.39768e-06
2.53779e-06
1.48225e-06
2.32234e-07
0
0
4.70187e-07
4.06014e-07
1.11199e-07
0
0
0
0
0
0
0
0
0
0
0
5.59441e-08
0
0
0
0
3.04086e-07
2.44424e-07
3.87626e-08
0
0
0
0
9.13387e-09
0
0
0
0
0
0
0
0
0
5.85949e-08
0
0
0
0
0
7.77579e-07
1.09632e-06
2.74646e-07
0
0
0
2.82249e-07
5.52791e-08
0
0
0
1.1778e-06
6.9876e-07
4.52367e-07
5.82322e-07
6.37712e-07
4.62471e-07
1.16996e-07
2.39122e-07
1.37324e-06
1.21049e-06
1.36005e-07
1.96258e-08
1.23403e-07
2.65802e-07
1.45941e-07
0
0
0
0
1.49281e-07
1.55952e-08
0
0
0
7.24781e-07
0
1.0904e-06
1.29356e-06
3.75386e-07
5.5858e-07
2.56787e-06
3.26735e-07
0
0
0
0
0
1.78807e-07
2.98419e-07
3.11884e-07
1.43801e-07
0
0
0
3.53486e-07
4.91443e-07
0
0
1.87654e-06
1.76991e-06
3.55377e-07
0
0
0
3.04705e-07
4.07268e-07
2.98454e-07
2.31681e-07
3.79034e-08
0
0
0
0
0
0
0
0
1.22838e-06
9.2243e-07
1.64775e-07
1.38481e-07
8.28464e-08
3.87545e-07
9.06888e-07
1.02655e-06
7.55564e-07
3.69872e-07
0
0
0
0
0
0
0
0
0
0
1.41097e-08
2.69307e-08
3.07011e-08
2.81209e-08
2.39678e-08
2.01382e-08
1.63534e-08
1.24815e-08
8.62938e-09
4.84267e-09
0
0
0
0
0
0
0
0
6.90932e-10
1.38117e-09
1.79307e-09
1.88985e-09
1.74326e-09
1.48308e-09
1.18807e-09
8.81255e-10
5.404e-10
1.68933e-10
9.7657e-12
0
0
0
0
0
0
0
0
1.73279e-11
0
0
0
0
0
0
0
0
0
0
0
0
0
0
0
0
0
0
0
0
0
0
0
0
0
0
3.53713e-07
1.84192e-06
6.07386e-06
4.50505e-06
2.03183e-06
1.49816e-06
1.89041e-06
2.95555e-06
3.40936e-06
3.13394e-06
2.32848e-06
1.26076e-06
2.20142e-07
0
0
0
0
0
1.59859e-07
1.94402e-06
2.43111e-06
1.44298e-06
1.78981e-08
0
0
0
0
0
0
0
0
0
0
0
0
0
0
0
0
0
0
0
0
0
0
0
6.17343e-07
1.86211e-06
2.14472e-07
2.42137e-06
3.17713e-05
3.54688e-05
4.448e-05
6.84015e-05
4.64512e-05
1.27843e-05
3.06877e-06
5.5868e-07
2.0872e-07
3.61608e-07
5.49596e-07
6.8797e-07
7.66079e-07
7.96085e-07
7.83415e-07
7.34433e-07
6.61082e-07
5.63557e-07
4.5537e-07
3.47584e-07
2.36875e-07
1.32108e-07
2.83543e-08
0
0
0
0
0
0
0
0
0
0
0
0
0
0
0
0
0
0
0
0
0
0
0
0
0
0
0
0
0
0
0
0
0
0
0
4.34359e-08
1.28775e-07
1.28147e-07
0
0
0
0
0
0
0
0
2.77994e-07
2.25813e-07
0
0
0
0
4.05413e-06
2.43892e-06
9.87486e-07
1.80114e-06
3.83444e-06
6.91076e-06
1.28392e-05
2.57013e-05
4.90278e-05
6.76952e-05
4.26597e-05
1.0214e-05
1.7844e-06
3.44206e-07
1.74722e-07
2.13024e-07
2.60021e-07
2.78541e-07
2.69246e-07
2.38284e-07
1.94719e-07
1.46406e-07
9.7319e-08
4.78247e-08
0
0
0
0
0
0
0
0
0
0
0
0
0
0
0
0
0
0
0
0
0
0
0
0
0
0
0
0
0
0
0
0
0
1.24792e-06
4.78264e-07
0
0
0
2.42831e-06
4.35954e-06
5.0443e-06
3.61081e-06
6.43964e-07
0
0
0
0
0
0
0
1.04002e-07
6.04314e-07
6.74211e-07
2.8708e-07
0
0
0
0
0
0
0
0
0
0
0
0
0
0
0
0
0
0
0
0
0
0
3.54633e-07
1.98612e-06
1.63207e-06
0
0
3.78861e-06
7.71646e-06
9.07024e-06
1.13618e-05
1.1144e-05
7.06298e-06
3.25219e-06
1.32579e-06
7.93337e-07
7.34887e-07
7.57345e-07
7.76031e-07
7.63151e-07
7.26767e-07
6.71503e-07
6.04889e-07
5.35493e-07
4.49512e-07
3.67257e-07
2.82477e-07
1.96704e-07
1.104e-07
2.2472e-08
0
0
0
0
0
0
0
0
0
0
0
0
0
0
0
0
0
0
0
0
0
0
0
0
0
0
0
0
0
0
0
0
0
0
0
0
0
0
0
0
0
0
0
0
0
0
5.39569e-09
1.74754e-08
0
0
0
0
1.54983e-06
3.02693e-06
2.91569e-06
5.38669e-06
1.05031e-05
1.96852e-05
3.70541e-05
5.9535e-05
6.41734e-05
4.28635e-05
2.03241e-05
8.42754e-06
3.12903e-06
1.19968e-06
6.43353e-07
4.94191e-07
4.43936e-07
4.07651e-07
3.67082e-07
3.17937e-07
2.64168e-07
2.05258e-07
1.43466e-07
7.64833e-08
2.19677e-09
0
0
0
0
0
0
0
0
0
0
0
0
0
0
0
0
0
0
0
0
0
0
0
0
0
0
0
0
0
0
0
7.2507e-07
3.65357e-06
4.05792e-06
3.58939e-06
3.34033e-06
3.99023e-06
5.10483e-06
6.56252e-06
4.14509e-06
0
0
0
0
0
0
0
0
0
0
0
0
0
0
0
0
0
0
0
0
0
0
0
0
0
0
0
0
0
0
0
0
0
0
0
1.45955e-06
0
0
0
0
9.15222e-07
2.33216e-06
1.96433e-06
1.53094e-06
2.58887e-06
2.09461e-06
9.76223e-07
6.53056e-07
7.88253e-07
9.43452e-07
1.01133e-06
9.97519e-07
9.40525e-07
8.64701e-07
7.86844e-07
7.18016e-07
6.58316e-07
5.87978e-07
4.92777e-07
3.75027e-07
2.50156e-07
1.29459e-07
9.62368e-09
0
0
0
0
0
0
0
0
0
0
0
0
0
0
0
0
0
0
0
0
0
0
0
0
0
0
0
0
0
0
0
0
0
0
0
0
0
0
0
0
0
0
0
0
0
0
0
0
0
0
0
0
6.4436e-06
1.12409e-05
1.10774e-05
1.55437e-05
2.00554e-05
2.25049e-05
2.3489e-05
2.23632e-05
1.80774e-05
1.20009e-05
8.28986e-06
6.27078e-06
5.0485e-06
4.07658e-06
3.1983e-06
2.5075e-06
1.99515e-06
1.60354e-06
1.29601e-06
1.03447e-06
8.05988e-07
6.00907e-07
4.14125e-07
2.39404e-07
5.23302e-08
0
0
0
0
0
0
0
0
0
0
0
0
0
0
0
0
0
0
0
0
0
0
0
0
0
0
0
0
0
0
1.5612e-06
3.57817e-06
4.26517e-06
4.00689e-06
2.87306e-06
5.86822e-07
0
0
0
0
0
0
0
0
0
0
0
0
9.88689e-08
5.97511e-07
5.87909e-07
2.5914e-07
0
0
0
0
0
0
0
0
0
0
0
4.48306e-07
1.45292e-06
5.02137e-07
0
0
0
0
9.6044e-07
4.04988e-06
4.82319e-06
6.42129e-06
9.03148e-06
7.33427e-06
0
0
0
0
0
0
0
0
0
0
0
0
0
0
0
0
0
0
0
0
0
0
0
0
0
0
0
0
0
0
0
0
0
0
0
0
0
0
0
0
0
0
0
0
0
0
0
0
0
0
0
0
0
0
0
0
0
0
0
0
0
0
0
0
0
0
0
0
0
0
0
0
0
0
0
0
0
7.2289e-06
1.42956e-05
1.52865e-05
1.05852e-05
6.77456e-06
5.66074e-06
5.38755e-06
4.54283e-06
4.03277e-06
4.24123e-06
4.4516e-06
4.75293e-06
5.43228e-06
5.78187e-06
5.48258e-06
4.95296e-06
4.63519e-06
4.58045e-06
4.72048e-06
5.01278e-06
5.30765e-06
5.4424e-06
5.19552e-06
3.99389e-06
7.34296e-07
0
2.34356e-06
6.21662e-06
4.04192e-06
5.98373e-07
0
0
0
0
0
0
0
0
0
0
0
0
0
0
0
0
0
0
0
0
0
0
0
1.86053e-06
2.81588e-06
1.19257e-06
0
1.74408e-06
3.65288e-06
3.12145e-06
2.45714e-06
1.25181e-06
0
0
0
0
0
0
0
0
0
0
0
0
0
0
3.79659e-07
9.73597e-07
1.19686e-06
1.1721e-06
9.68118e-07
6.34082e-07
2.5592e-07
0
0
1.13336e-07
3.38111e-07
4.3105e-07
3.20429e-07
7.24984e-08
0
8.24897e-07
2.21312e-06
9.552e-07
0
0
0
7.67488e-07
5.33672e-06
8.35461e-06
9.27852e-06
4.96522e-06
7.98881e-07
0
0
0
0
0
0
0
0
0
0
0
0
0
0
0
0
0
0
0
0
0
3.39357e-07
1.50339e-06
0
0
0
0
0
0
0
0
0
0
0
0
0
0
0
0
0
0
0
0
0
0
0
0
0
0
0
0
0
0
0
0
0
0
0
0
0
0
0
0
0
0
0
0
0
0
0
6.26376e-07
2.79891e-06
4.71571e-06
7.4467e-06
1.38802e-05
0
0
1.1349e-05
1.28852e-05
1.17749e-05
8.82454e-06
5.9896e-06
4.92585e-06
4.81179e-06
4.65668e-06
4.66191e-06
4.81548e-06
5.16661e-06
5.10667e-06
3.77971e-06
2.67248e-06
2.4698e-06
2.84496e-06
3.53402e-06
4.27489e-06
4.90388e-06
5.26492e-06
5.27603e-06
4.71901e-06
2.96608e-06
0
0
0
3.54255e-06
5.25374e-06
4.58105e-06
2.82547e-06
7.2668e-07
0
0
0
0
0
0
0
0
0
0
0
0
0
0
0
0
0
0
0
0
9.61777e-07
2.39595e-06
4.41319e-06
5.23002e-06
3.15908e-06
8.96311e-07
7.61392e-07
3.04754e-06
2.76612e-06
2.2546e-06
1.64315e-06
4.53984e-07
0
0
0
0
0
0
0
0
0
0
0
0
0
0
0
6.44849e-07
1.03833e-06
1.16109e-06
9.94565e-07
5.89481e-07
8.00415e-08
0
2.85175e-08
7.85497e-07
1.50789e-06
1.79602e-06
1.5725e-06
1.05444e-06
1.87067e-06
4.62972e-06
3.24279e-06
0
0
0
0
7.63291e-06
5.86255e-06
3.42068e-06
1.48225e-06
5.01062e-09
0
0
0
0
0
0
0
0
0
0
0
0
0
0
0
0
0
0
0
1.49722e-07
1.76779e-06
4.46682e-06
0
0
0
0
0
0
0
0
0
0
0
0
0
0
0
0
0
0
0
0
0
0
0
0
0
0
0
0
0
0
0
0
0
0
0
0
0
0
0
0
0
0
0
0
0
0
0
0
0
2.25918e-06
6.22966e-06
1.11623e-05
3.92465e-06
0
0
7.06372e-06
9.74414e-06
8.3922e-06
6.60357e-06
4.58569e-06
4.33852e-06
5.41513e-06
6.65523e-06
6.69063e-06
5.58432e-06
3.9247e-06
2.27577e-06
1.62368e-06
1.952e-06
2.82257e-06
3.882e-06
4.78374e-06
5.44646e-06
5.726e-06
5.65553e-06
5.0441e-06
3.22641e-06
0
0
0
1.42625e-06
3.75983e-06
4.3218e-06
4.00135e-06
3.13524e-06
1.85457e-06
3.36102e-07
0
0
0
0
0
0
0
0
0
0
0
0
0
0
0
0
0
0
0
1.58962e-06
3.00793e-06
4.51996e-06
5.24519e-06
3.00504e-06
7.99761e-07
2.39096e-07
1.50068e-06
2.66921e-06
1.45861e-06
1.4058e-06
1.64599e-06
1.71606e-06
1.41115e-06
7.97355e-07
9.00489e-08
0
0
0
0
0
0
0
0
0
0
0
0
0
0
0
0
0
0
0
0
3.66813e-06
9.23286e-06
1.10769e-05
1.02153e-05
8.25178e-06
6.54306e-06
3.46441e-06
1.0405e-06
2.4001e-06
0
0
2.96218e-06
3.04495e-06
2.37391e-06
1.34271e-06
3.55412e-07
0
0
0
0
0
0
0
1.61893e-07
0
0
0
0
0
0
0
0
0
0
3.46138e-07
2.40777e-06
5.96101e-06
0
0
0
0
0
0
0
0
2.10064e-08
7.71444e-08
9.86507e-09
0
0
0
0
0
0
0
0
0
0
8.05654e-08
3.52772e-08
0
0
0
0
0
0
0
0
0
0
0
0
0
0
0
0
0
0
0
0
0
3.02415e-06
1.27173e-06
0
0
0
0
3.32007e-07
4.40953e-06
8.59468e-06
0
0
0
5.40798e-06
7.18919e-06
5.97199e-06
4.68449e-06
3.35707e-06
3.54072e-06
4.62127e-06
4.98986e-06
4.31583e-06
3.01034e-06
1.60833e-06
9.00686e-07
1.36682e-06
2.59761e-06
3.89281e-06
4.9479e-06
5.54147e-06
5.74975e-06
5.60221e-06
4.99043e-06
3.22404e-06
0
0
0
1.68017e-07
2.77242e-06
3.71726e-06
3.87938e-06
3.75967e-06
3.45004e-06
2.75616e-06
1.57148e-06
1.22687e-07
0
0
0
0
0
0
0
0
0
0
0
0
0
0
0
0
4.88042e-07
1.05619e-06
2.08391e-06
3.05563e-06
3.88913e-06
4.59749e-06
2.92161e-06
7.87603e-07
3.19513e-08
4.21823e-07
1.92854e-06
9.43897e-07
8.8745e-07
1.41644e-06
2.14283e-06
2.8318e-06
3.25562e-06
3.32239e-06
3.13839e-06
2.94833e-06
2.89666e-06
2.95771e-06
2.9826e-06
2.82838e-06
2.2792e-06
1.22293e-06
0
0
0
0
0
0
0
0
0
0
0
0
1.41508e-06
3.40194e-06
4.49173e-06
4.58594e-06
4.36497e-06
4.20374e-06
3.47674e-06
4.39294e-06
4.45759e-06
1.16282e-06
2.70635e-06
4.17671e-06
4.45997e-06
3.87223e-06
3.05647e-06
2.16183e-06
1.13695e-06
0
0
0
0
0
0
1.86446e-06
0
0
0
0
0
0
0
0
0
3.25046e-07
2.45025e-06
6.58587e-06
7.20411e-06
0
0
0
0
0
0
0
3.74669e-07
6.47885e-07
6.61215e-07
5.16809e-07
3.36886e-07
1.82164e-07
0
0
0
0
0
0
0
0
0
1.33506e-07
1.05953e-07
0
0
0
0
0
0
0
0
0
0
0
0
0
0
0
0
0
0
0
0
2.8279e-06
1.92472e-06
0
1.02617e-06
1.76506e-06
2.06467e-06
4.66122e-07
0
0
0
0
0
2.24343e-06
4.29472e-06
4.13363e-06
3.03607e-06
2.15013e-06
1.96188e-06
2.36336e-06
3.0401e-06
2.83646e-06
1.8369e-06
7.49061e-07
6.11126e-07
1.82344e-06
3.39666e-06
4.60152e-06
5.30722e-06
5.53821e-06
5.4136e-06
4.79345e-06
3.24587e-06
5.2353e-07
0
0
0
1.94725e-06
3.34304e-06
3.77469e-06
3.87125e-06
3.96161e-06
4.06696e-06
3.83667e-06
2.93375e-06
1.3792e-06
0
0
0
0
0
0
0
0
0
0
0
0
0
0
0
0
1.488e-06
2.06656e-06
2.4191e-06
3.01674e-06
3.59606e-06
4.31534e-06
3.27315e-06
1.26431e-06
6.76987e-08
2.40453e-07
1.09386e-06
2.10961e-06
1.09986e-06
1.02529e-06
1.73723e-06
2.74661e-06
3.21195e-06
3.122e-06
2.85517e-06
2.63367e-06
2.38118e-06
1.96202e-06
1.10569e-06
0
0
0
0
0
0
0
0
0
0
0
0
0
0
0
0
1.34341e-07
1.37232e-06
2.52118e-06
3.59609e-06
4.22878e-06
4.98676e-06
6.45081e-06
4.56045e-06
3.00685e-06
4.50201e-06
5.38358e-06
5.29426e-06
4.92901e-06
4.45735e-06
3.84188e-06
3.03058e-06
2.03057e-06
4.46116e-08
0
0
0
0
1.40922e-06
0
0
0
0
0
0
0
0
1.50698e-07
1.81739e-06
5.51176e-06
1.06178e-05
0
0
0
0
0
0
0
0
5.69061e-07
1.01359e-06
1.03654e-06
7.44291e-07
3.80185e-07
1.77916e-07
2.4927e-08
0
0
0
0
0
0
0
0
0
0
0
0
0
0
0
0
0
0
0
0
0
0
0
0
0
0
0
0
0
0
0
1.3259e-06
2.37499e-06
4.53862e-06
5.87088e-06
6.80044e-06
5.02265e-06
0
0
0
0
0
0
0
1.49267e-06
1.02143e-06
0
0
1.07075e-06
2.22176e-06
2.22714e-06
1.35427e-06
4.57767e-07
7.61636e-07
2.33179e-06
3.80262e-06
4.7522e-06
5.19292e-06
5.10694e-06
4.57813e-06
3.33787e-06
1.17269e-06
0
0
0
1.07564e-06
3.13616e-06
3.98449e-06
4.28e-06
4.38889e-06
4.54851e-06
4.79627e-06
4.77956e-06
4.1369e-06
2.60927e-06
5.3925e-07
0
0
0
0
0
0
0
0
0
0
0
0
0
0
0
1.74966e-06
3.36703e-06
3.36465e-06
3.46444e-06
3.89569e-06
4.4107e-06
3.88062e-06
2.30255e-06
0
0
1.3064e-06
7.06689e-06
4.81889e-06
1.55083e-06
6.00868e-08
5.10978e-07
1.38067e-07
0
0
0
0
0
0
0
0
0
0
0
0
0
0
0
0
0
0
0
0
0
0
0
0
0
8.33417e-08
2.23742e-06
4.75397e-06
5.80859e-06
3.76867e-06
4.37365e-06
5.21378e-06
5.19269e-06
5.01356e-06
4.85548e-06
4.73722e-06
4.85237e-06
6.3151e-06
8.73491e-06
5.41378e-08
0
0
0
1.16241e-06
6.87775e-07
0
0
0
0
0
0
0
0
8.99384e-07
3.2469e-06
7.37944e-06
2.98178e-06
0
0
0
0
0
0
0
0
8.56806e-07
1.43096e-06
1.1622e-06
2.06326e-07
0
0
0
0
0
0
0
0
0
0
0
0
0
0
0
0
0
0
0
0
0
0
0
0
0
0
0
0
0
0
0
0
0
0
0
3.27484e-06
5.47681e-06
7.78918e-06
9.45139e-06
9.51439e-06
0
0
0
0
0
0
0
0
0
0
0
9.72962e-07
1.89595e-06
1.93046e-06
1.13104e-06
3.92427e-07
1.00166e-06
2.62638e-06
3.8612e-06
4.54347e-06
4.73147e-06
4.3657e-06
3.40179e-06
1.77597e-06
0
0
0
4.19713e-08
2.79108e-06
4.22491e-06
4.86501e-06
5.16821e-06
5.25537e-06
5.22777e-06
5.1312e-06
5.01448e-06
4.60894e-06
3.38504e-06
1.2657e-06
0
0
0
0
0
0
0
0
0
0
0
0
0
0
0
5.67044e-07
4.90117e-06
4.99585e-06
4.35371e-06
4.28093e-06
4.53719e-06
4.35185e-06
3.44002e-06
0
0
4.00714e-07
9.79712e-06
7.21409e-06
2.34112e-06
0
0
0
0
0
0
0
0
0
0
0
0
0
0
0
0
0
0
0
0
0
0
0
0
0
0
0
0
0
0
1.41797e-07
2.30483e-06
5.52974e-06
5.5236e-06
4.67615e-06
4.15959e-06
3.99877e-06
3.93093e-06
4.27458e-06
6.24726e-06
7.47399e-06
1.84068e-06
0
0
0
5.47123e-07
1.06702e-06
8.19779e-08
0
0
0
0
0
0
0
2.47187e-07
1.47961e-06
3.87574e-06
4.55127e-06
0
0
0
0
0
0
0
0
0
7.23593e-07
1.32006e-06
6.82408e-07
0
0
0
0
0
1.27888e-07
2.04313e-06
9.76851e-07
2.62965e-07
8.0221e-08
8.12423e-08
1.00877e-07
9.21437e-08
4.97874e-08
0
0
0
0
0
0
0
0
0
0
0
0
0
0
0
0
0
0
0
0
0
0
2.67684e-06
4.67641e-06
7.40973e-06
9.45619e-06
1.04977e-05
8.06605e-06
0
0
0
0
0
0
0
1.57161e-06
3.69791e-06
1.2174e-06
1.12912e-06
1.70694e-06
1.73222e-06
9.98756e-07
3.67442e-07
1.12887e-06
2.6468e-06
3.63741e-06
4.16739e-06
4.14209e-06
3.47288e-06
2.24458e-06
5.75914e-07
0
0
0
2.01525e-06
4.16762e-06
5.23402e-06
5.88947e-06
6.32574e-06
6.28757e-06
5.81501e-06
5.3018e-06
5.02736e-06
4.78995e-06
3.87125e-06
1.85082e-06
0
0
0
0
0
0
0
0
0
0
0
0
0
0
0
0
5.80482e-06
6.91709e-06
5.5704e-06
4.69916e-06
4.73923e-06
4.65316e-06
4.20152e-06
0
0
0
7.40631e-06
5.10057e-06
2.18697e-06
6.7903e-07
0
0
0
0
0
0
0
0
0
0
0
0
0
0
0
0
0
0
0
0
0
0
0
0
0
0
0
0
0
0
0
6.44169e-06
4.33282e-06
3.01583e-06
2.76999e-06
2.88774e-06
3.16675e-06
3.89797e-06
4.31535e-06
2.41014e-06
6.76769e-08
0
0
2.8768e-07
1.3883e-06
5.54816e-07
0
0
0
0
0
0
0
0
6.60802e-07
1.6932e-06
1.52011e-06
0
0
0
0
0
0
0
0
0
0
6.67037e-07
1.35549e-06
9.27491e-07
0
0
0
0
2.10469e-07
7.58656e-07
2.08057e-06
1.82628e-06
0
0
1.30943e-08
1.83723e-07
1.74021e-07
9.35706e-08
1.86505e-08
0
0
0
0
0
0
0
0
0
0
0
0
0
0
0
0
0
0
0
0
0
1.57761e-06
2.82936e-06
5.25137e-06
7.45211e-06
8.6967e-06
8.78247e-06
6.15171e-06
8.84433e-07
1.07714e-06
6.41058e-06
7.81393e-06
2.75327e-06
5.24097e-07
1.29591e-06
2.04785e-06
1.2757e-06
1.09938e-06
1.52055e-06
1.55519e-06
8.82574e-07
3.16144e-07
1.10363e-06
2.44335e-06
3.21746e-06
3.57251e-06
3.38181e-06
2.53113e-06
1.2944e-06
0
0
0
1.01252e-06
3.63604e-06
5.22054e-06
6.08579e-06
6.92044e-06
7.47926e-06
7.27542e-06
6.50206e-06
5.7297e-06
5.38722e-06
5.27937e-06
4.46972e-06
2.39458e-06
0
0
0
0
0
0
0
0
0
0
0
0
0
0
0
0
5.02033e-06
8.79952e-06
7.22289e-06
5.46458e-06
5.05701e-06
4.92632e-06
4.54957e-06
2.70852e-06
0
0
2.70671e-06
3.1603e-06
2.08072e-06
8.43397e-07
0
0
0
0
0
0
0
0
0
0
0
0
0
0
0
0
0
0
0
1.36666e-07
6.9175e-07
1.15635e-06
1.59266e-06
2.03109e-06
2.39936e-06
2.57895e-06
2.35595e-06
1.41726e-06
0
0
0
1.21872e-06
1.05347e-06
1.49035e-06
2.26214e-06
2.7267e-06
2.81344e-06
2.5022e-06
1.74961e-06
6.15173e-07
0
0
0
1.07893e-06
1.41802e-06
2.05764e-07
0
0
0
0
0
5.60626e-08
1.82132e-07
4.37063e-07
7.7581e-07
1.93838e-07
0
0
0
0
0
0
0
0
0
0
0
5.22474e-07
1.50088e-06
1.735e-06
8.31476e-07
0
0
3.91558e-08
7.90811e-07
1.0025e-06
6.14358e-07
0
0
0
0
0
1.09532e-07
1.02488e-07
2.32986e-08
0
0
0
0
0
0
0
0
0
0
0
0
0
0
0
0
0
0
0
0
1.179e-07
8.42807e-07
1.49412e-06
2.8389e-06
4.68662e-06
5.81775e-06
6.04513e-06
5.81452e-06
4.91356e-06
4.47593e-06
4.47235e-06
2.80473e-06
6.71475e-07
0
3.94128e-07
9.11383e-07
8.45575e-07
9.15277e-07
1.30422e-06
1.37499e-06
7.71393e-07
2.32556e-07
9.67656e-07
2.09306e-06
2.68247e-06
2.89786e-06
2.57342e-06
1.7173e-06
6.97545e-07
0
0
5.38795e-07
2.89987e-06
5.01421e-06
6.11439e-06
6.91979e-06
7.92272e-06
8.57633e-06
8.3376e-06
7.45413e-06
6.62665e-06
6.46688e-06
6.54154e-06
5.52956e-06
3.00882e-06
2.99311e-07
0
0
0
0
0
0
0
0
0
0
1.42442e-08
0
0
0
0
2.12012e-06
1.02771e-05
9.24221e-06
6.6499e-06
5.46406e-06
5.18547e-06
4.66384e-06
2.42269e-06
1.51898e-06
0
6.05878e-07
1.21554e-06
6.19234e-07
0
0
0
0
0
0
0
0
0
0
0
0
0
0
0
0
0
0
7.88993e-07
1.80912e-06
2.85569e-06
3.84265e-06
4.7411e-06
5.47606e-06
6.08016e-06
6.49746e-06
6.50925e-06
5.84964e-06
4.27618e-06
2.10063e-06
9.02836e-07
1.01885e-06
7.6759e-07
5.90888e-07
1.45755e-06
2.55465e-06
2.99097e-06
2.4826e-06
1.58258e-06
6.5796e-07
0
0
0
0
1.99065e-07
9.23864e-07
3.97588e-07
0
0
0
0
3.84128e-08
3.07367e-07
5.38967e-07
6.71946e-07
3.62209e-07
0
0
0
0
0
0
0
0
0
0
0
7.86408e-08
2.09127e-07
1.57415e-06
2.76201e-06
2.16771e-06
1.76704e-07
0
0
3.31028e-07
0
0
0
0
0
0
0
0
0
0
0
0
0
0
0
0
0
0
0
0
0
0
0
0
0
0
0
4.05835e-08
8.56737e-08
1.20372e-07
1.93166e-07
4.53854e-07
7.83675e-07
1.27171e-06
2.29202e-06
3.2512e-06
3.43466e-06
3.15184e-06
2.92793e-06
2.55271e-06
1.91287e-06
8.15298e-07
0
0
0
3.47728e-07
4.84065e-07
6.79966e-07
1.05545e-06
1.17269e-06
6.50061e-07
1.15092e-07
7.3776e-07
1.6821e-06
2.08075e-06
2.18742e-06
1.85723e-06
1.14314e-06
4.92257e-07
2.03536e-07
7.22137e-07
2.47128e-06
4.83025e-06
6.53206e-06
7.38551e-06
8.19784e-06
9.22277e-06
9.88486e-06
9.63175e-06
8.6859e-06
7.94738e-06
8.11767e-06
8.29065e-06
6.78993e-06
3.51698e-06
6.51744e-07
0
0
0
0
0
0
0
0
0
5.29898e-07
5.82245e-07
0
0
0
0
0
1.08715e-05
1.13818e-05
8.13296e-06
5.99393e-06
5.39304e-06
4.7383e-06
3.57767e-07
0
0
0
0
0
0
0
0
0
0
0
0
0
0
0
0
0
7.65456e-07
2.24888e-06
3.36692e-06
3.57097e-06
2.31789e-06
0
0
0
0
0
2.6444e-07
2.69803e-06
4.83756e-06
6.46175e-06
7.25335e-06
6.79431e-06
5.43786e-06
4.11014e-06
3.73543e-06
3.58112e-06
2.48861e-06
1.66613e-06
2.2428e-06
3.2233e-06
3.46112e-06
2.61422e-06
1.38599e-06
3.70507e-07
0
0
0
0
0
2.13042e-07
7.28418e-07
3.00666e-07
6.04799e-08
1.80374e-07
3.11921e-07
4.41779e-07
6.70454e-07
8.90806e-07
9.0061e-07
2.16618e-07
0
0
0
0
0
0
0
0
0
1.41107e-05
5.05677e-06
1.16671e-06
1.0126e-07
1.04203e-06
2.67399e-06
2.56186e-06
7.59119e-07
0
0
0
0
0
0
0
0
0
0
0
0
0
0
0
0
0
1.48059e-08
1.35474e-08
0
0
0
0
0
0
0
0
0
4.05552e-08
6.94037e-09
5.81639e-08
1.13291e-07
1.48733e-07
1.79348e-07
2.58713e-07
4.09135e-07
5.68116e-07
8.44615e-07
1.44841e-06
1.74973e-06
1.52288e-06
1.23313e-06
9.90674e-07
6.14472e-07
1.0163e-07
0
0
0
5.14758e-08
2.33128e-07
4.43925e-07
7.83881e-07
9.36448e-07
5.00703e-07
0
4.37128e-07
1.23768e-06
1.49236e-06
1.51893e-06
1.26171e-06
8.09412e-07
6.11286e-07
9.90949e-07
2.2941e-06
4.56409e-06
6.95525e-06
8.56654e-06
9.45811e-06
1.02456e-05
1.11263e-05
1.16409e-05
1.12268e-05
1.01131e-05
9.3977e-06
9.72019e-06
9.67771e-06
7.56614e-06
3.69074e-06
8.30152e-07
0
0
0
0
0
0
0
0
0
1.18205e-06
1.26732e-06
5.44529e-07
0
0
0
0
9.88143e-06
1.3275e-05
9.68007e-06
6.66638e-06
5.58279e-06
4.84579e-06
0
0
0
0
0
0
0
0
0
0
0
0
0
0
0
8.4066e-07
3.96429e-06
7.58132e-06
1.18243e-05
1.63246e-05
1.99931e-05
1.56924e-05
0
0
0
0
0
0
0
0
0
5.60182e-07
3.54895e-06
4.89111e-06
4.75043e-06
4.25478e-06
4.52929e-06
5.04353e-06
3.85248e-06
2.413e-06
2.68735e-06
3.79453e-06
4.14949e-06
3.2088e-06
1.75134e-06
5.95929e-07
2.89545e-08
0
0
0
0
0
2.15244e-07
4.93304e-07
2.57939e-07
3.21337e-07
5.25557e-07
7.05144e-07
9.35661e-07
1.14811e-06
1.10625e-06
3.38182e-07
0
0
0
0
0
0
1.56642e-06
2.9548e-06
1.36888e-05
1.12722e-05
3.09556e-06
7.15904e-07
0
8.16338e-08
1.13193e-06
1.63143e-06
1.04387e-06
2.76333e-07
0
0
0
0
0
0
0
0
0
0
0
0
0
0
0
1.39741e-09
1.25777e-08
9.59286e-09
0
0
0
0
0
0
0
0
0
0
1.20718e-07
8.3556e-08
1.27628e-07
1.53265e-07
1.6309e-07
1.81521e-07
2.30496e-07
2.99662e-07
2.93064e-07
3.384e-07
7.14355e-07
7.60359e-07
5.51689e-07
3.65403e-07
1.58256e-07
0
0
0
0
0
5.60935e-08
2.18325e-07
4.9673e-07
6.59939e-07
2.99171e-07
0
6.7238e-08
7.81865e-07
9.48918e-07
9.32286e-07
8.0405e-07
6.43728e-07
8.83627e-07
1.89639e-06
3.92145e-06
6.73441e-06
9.4231e-06
1.12684e-05
1.23085e-05
1.30678e-05
1.38315e-05
1.41443e-05
1.34099e-05
1.19109e-05
1.10543e-05
1.11915e-05
1.06687e-05
7.74345e-06
3.66426e-06
8.03838e-07
0
0
0
0
0
0
0
0
4.19412e-07
1.7785e-06
2.11622e-06
9.84491e-07
0
0
0
0
7.69061e-06
1.47545e-05
1.13614e-05
7.60493e-06
5.80494e-06
4.97784e-06
0
0
0
0
0
0
0
0
0
0
0
0
0
0
2.12527e-07
2.00203e-06
4.0716e-06
5.80028e-06
6.2498e-06
3.6824e-06
0
0
0
0
0
0
0
0
0
0
0
0
6.45231e-07
2.27468e-06
2.19584e-06
2.02714e-06
2.62208e-06
4.12039e-06
4.44149e-06
2.85275e-06
2.23187e-06
3.16782e-06
3.94085e-06
3.49446e-06
2.04899e-06
7.45667e-07
1.71485e-07
1.72479e-07
0
0
0
0
0
1.46678e-07
3.23456e-07
2.22393e-07
2.77902e-07
4.04766e-07
5.79416e-07
7.6824e-07
7.3165e-07
1.67044e-07
0
0
0
0
0
4.20456e-06
1.98546e-06
3.27391e-06
1.15581e-05
4.30556e-06
1.15491e-06
3.0206e-07
0
0
0
5.25308e-07
9.71295e-07
1.24999e-06
9.92636e-07
0
0
0
0
0
0
0
0
6.48496e-07
6.86704e-07
3.59103e-07
1.15137e-07
6.25787e-08
5.71139e-08
4.94993e-08
3.43694e-08
1.03985e-08
0
0
0
0
0
0
0
0
0
0
0
2.2813e-07
1.67605e-07
1.62235e-07
1.62181e-07
1.5391e-07
1.566e-07
1.83458e-07
1.72456e-07
0
0
3.01502e-07
3.38506e-07
2.19085e-07
7.30357e-08
0
0
0
0
0
0
0
1.66593e-07
3.14856e-07
2.53532e-08
0
0
2.94623e-07
4.30905e-07
3.8768e-07
3.97363e-07
5.68586e-07
1.22861e-06
2.74118e-06
5.31782e-06
8.59188e-06
1.16908e-05
1.39122e-05
1.51883e-05
1.61432e-05
1.69665e-05
1.71178e-05
1.59036e-05
1.38125e-05
1.26956e-05
1.23918e-05
1.10657e-05
7.70888e-06
3.36787e-06
5.13619e-07
0
0
0
0
0
0
0
7.52642e-08
1.03531e-06
2.34474e-06
2.97352e-06
1.42502e-06
6.87189e-07
0
0
0
5.39659e-06
1.56095e-05
1.28086e-05
8.41237e-06
6.01183e-06
5.04691e-06
0
0
0
0
0
0
0
0
0
0
0
0
0
0
0
0
0
0
0
0
0
0
0
0
0
0
0
1.18509e-06
0
0
0
0
2.89062e-07
2.14614e-06
1.88421e-06
1.03449e-06
7.52717e-07
1.5919e-06
3.0241e-06
2.81762e-06
1.89378e-06
2.02924e-06
2.82856e-06
3.00436e-06
2.20781e-06
8.58113e-07
0
0
2.22382e-07
0
0
0
0
0
6.5616e-08
3.24226e-07
2.94376e-07
2.34424e-07
2.31488e-07
2.70263e-07
2.15524e-07
0
0
0
0
0
1.63349e-06
8.19713e-07
0
0
4.06685e-06
1.43463e-06
3.45367e-07
3.99909e-09
0
0
0
0
8.80755e-08
6.41407e-07
1.15286e-06
1.05861e-06
0
0
0
0
0
0
2.24981e-06
2.73289e-06
2.31468e-06
1.57732e-06
9.50529e-07
4.95333e-07
2.45492e-07
1.26152e-07
7.60458e-08
3.5548e-08
0
0
0
0
0
0
0
0
0
0
0
3.568e-07
2.86365e-07
1.9114e-07
1.73226e-07
1.53031e-07
1.36582e-07
1.36913e-07
1.4154e-07
0
0
0
1.47711e-07
1.98648e-07
1.00196e-07
0
0
0
0
0
0
0
0
0
0
0
0
0
0
0
5.14075e-08
5.23762e-07
1.61628e-06
3.61161e-06
6.71878e-06
1.05642e-05
1.43257e-05
1.71373e-05
1.89314e-05
2.01249e-05
2.08775e-05
2.06286e-05
1.85619e-05
1.58829e-05
1.4464e-05
1.35381e-05
1.14285e-05
7.61565e-06
2.22088e-06
0
0
0
0
0
0
0
6.30241e-07
1.30895e-06
1.79668e-06
2.83677e-06
3.59907e-06
1.69988e-06
2.45168e-06
1.97636e-06
1.08941e-06
0
3.759e-06
1.55782e-05
1.42002e-05
9.45074e-06
6.35223e-06
5.08475e-06
0
0
0
0
0
0
0
0
0
0
0
7.39988e-07
9.60736e-07
1.60821e-07
0
0
0
0
0
0
0
0
0
0
0
0
0
2.62761e-06
3.95375e-06
3.8269e-07
0
0
8.70568e-07
2.19107e-06
1.76495e-06
9.05112e-07
3.88269e-07
3.12114e-07
8.53996e-07
1.48839e-06
1.19909e-06
1.09181e-06
1.51774e-06
1.95249e-06
1.78509e-06
9.92599e-07
0
0
0
1.6979e-07
0
0
0
0
0
0
3.43678e-07
4.55648e-07
4.11924e-07
3.32428e-07
2.38261e-07
8.65888e-08
0
0
0
0
5.14947e-07
0
0
0
0
2.94327e-09
0
0
0
0
0
0
0
0
0
0
3.81584e-07
8.67507e-07
1.28808e-06
1.33624e-06
1.00053e-06
4.24281e-06
7.39791e-06
4.75545e-06
3.19716e-06
2.08288e-06
1.40565e-06
8.45956e-07
4.7488e-07
2.45376e-07
1.26615e-07
6.36291e-08
1.71884e-08
0
0
0
0
0
0
0
0
0
0
1.35781e-07
4.37094e-07
2.36892e-07
1.69508e-07
1.5482e-07
1.28105e-07
1.12141e-07
1.08443e-07
3.12967e-08
0
0
0
0
2.06918e-08
0
0
0
0
0
0
0
0
0
0
0
0
0
0
0
0
3.96687e-07
1.81713e-06
4.1919e-06
7.74309e-06
1.22222e-05
1.67944e-05
2.04506e-05
2.28692e-05
2.39244e-05
2.42986e-05
2.3404e-05
2.06459e-05
1.80364e-05
1.6443e-05
1.46664e-05
1.25702e-05
3.61444e-06
0
0
0
0
0
0
0
8.05794e-07
2.6254e-06
2.90679e-06
2.5211e-06
3.042e-06
3.61662e-06
1.19756e-06
4.28292e-06
6.1552e-06
3.79202e-06
1.68857e-06
2.82874e-06
1.47945e-05
1.50913e-05
1.00373e-05
6.52083e-06
4.9915e-06
0
0
0
0
0
0
0
0
0
0
1.30407e-07
1.86239e-06
2.49373e-06
1.78787e-06
8.55778e-08
0
0
0
0
0
0
0
0
0
0
0
0
2.36211e-06
4.65873e-06
2.69166e-06
0
0
1.61817e-06
1.74103e-06
9.65105e-07
3.5053e-07
5.45417e-08
8.8371e-09
6.34841e-08
1.8542e-07
1.16134e-07
7.15109e-08
4.03177e-07
8.41252e-07
1.02754e-06
7.71905e-07
1.28241e-07
0
0
0
1.05517e-07
4.21952e-08
0
0
0
0
0
1.86184e-07
4.90309e-07
6.30554e-07
6.74491e-07
7.22838e-07
8.18499e-07
1.09158e-06
1.76831e-06
3.11336e-06
4.30359e-06
2.7938e-06
0
0
0
0
0
0
0
0
5.36278e-07
2.72795e-07
0
0
0
0
0
0
0
2.81822e-06
2.10775e-06
1.62278e-06
2.59172e-06
2.70632e-06
2.44801e-06
1.95302e-06
1.5382e-06
1.05416e-06
6.36972e-07
3.45839e-07
1.73036e-07
8.96547e-08
4.76551e-08
1.9838e-08
0
2.1828e-09
1.06978e-07
1.21768e-07
0
0
0
0
0
0
4.92828e-07
3.00719e-07
1.50916e-07
1.34067e-07
1.18902e-07
9.36547e-08
7.74203e-08
3.45628e-08
0
0
0
0
0
0
0
0
0
0
0
0
0
0
0
0
0
0
0
0
0
1.59562e-07
1.75647e-06
4.32923e-06
8.00318e-06
1.27655e-05
1.77272e-05
2.22047e-05
2.48508e-05
2.59651e-05
2.63146e-05
2.54453e-05
2.35268e-05
2.14801e-05
1.9187e-05
1.83622e-05
6.66287e-06
0
0
0
0
0
0
0
0
2.60831e-06
5.14527e-06
4.3754e-06
2.73038e-06
2.81192e-06
2.68725e-06
0
6.1357e-06
1.00517e-05
6.30327e-06
3.03533e-06
2.30827e-06
1.34376e-05
1.56435e-05
1.0632e-05
6.79629e-06
4.84341e-06
0
0
0
0
0
0
2.47952e-07
2.06814e-07
0
0
3.66404e-07
2.12888e-06
3.06908e-06
2.90697e-06
1.70507e-06
7.41356e-08
0
0
0
0
0
0
0
0
0
0
1.03743e-06
3.70489e-06
5.02943e-06
3.90224e-06
7.82249e-08
9.52834e-07
2.20482e-06
1.33878e-06
4.65853e-07
0
0
0
0
0
0
0
0
0
1.70342e-07
2.50946e-07
2.86729e-08
0
0
0
0
2.2318e-08
5.29582e-08
0
0
0
0
0
0
1.18146e-07
3.87776e-07
6.65596e-07
1.02846e-06
1.65094e-06
2.74549e-06
4.5899e-06
7.25773e-06
8.94394e-06
6.19218e-06
0
0
0
0
0
0
0
0
1.47648e-06
6.65994e-07
0
0
0
0
0
0
0
0
4.71465e-07
1.14896e-06
1.4044e-06
1.69811e-06
1.82546e-06
1.57755e-06
1.11582e-06
7.18402e-07
4.16556e-07
2.14211e-07
1.12725e-07
7.65558e-08
6.64469e-08
6.08878e-08
6.458e-08
1.19881e-07
2.29793e-07
1.8314e-07
0
0
0
0
0
3.79857e-07
3.65828e-07
1.42949e-07
8.76468e-08
9.54964e-08
7.77398e-08
5.26283e-08
2.36664e-08
0
0
0
0
0
0
0
0
0
0
0
0
0
0
0
0
0
0
0
0
0
0
1.43895e-06
4.11572e-06
7.78317e-06
1.25052e-05
1.76041e-05
2.24236e-05
2.55779e-05
2.76775e-05
2.92216e-05
2.99848e-05
2.99857e-05
2.7307e-05
2.34341e-05
7.51686e-06
0
0
0
0
0
0
0
0
1.13303e-06
4.16846e-06
5.92798e-06
3.7267e-06
1.31795e-06
2.14733e-06
2.19251e-07
0
7.3403e-06
1.30719e-05
8.19954e-06
3.8013e-06
1.81904e-06
1.17809e-05
1.57968e-05
1.08837e-05
6.82632e-06
4.63142e-06
0
0
0
0
0
0
0
2.82991e-07
0
0
2.11516e-07
1.58182e-06
2.5491e-06
2.69153e-06
2.15605e-06
1.08402e-06
0
0
0
0
0
0
0
0
0
1.58621e-06
3.18916e-06
4.12119e-06
5.21302e-06
5.60431e-06
3.49805e-06
3.83399e-06
2.22323e-06
1.04417e-06
4.27604e-07
1.96718e-08
0
0
0
0
0
0
0
0
0
0
0
0
0
0
0
0
0
7.15896e-09
0
0
0
0
0
0
0
9.99671e-08
5.88912e-07
1.40357e-06
2.69489e-06
4.75545e-06
8.14485e-06
1.25577e-05
5.38339e-06
0
0
0
0
0
0
0
0
0
4.65372e-06
1.06595e-06
0
0
0
0
0
0
0
9.37484e-07
1.31041e-06
1.56738e-06
1.7391e-06
1.72638e-06
1.3966e-06
9.48778e-07
6.38024e-07
4.09777e-07
2.40384e-07
1.37332e-07
9.67089e-08
9.31005e-08
9.49503e-08
9.58993e-08
1.19939e-07
1.90429e-07
2.8163e-07
1.92512e-07
0
0
0
0
1.94132e-07
3.90675e-07
1.61927e-07
4.13659e-08
4.87867e-08
5.69878e-08
3.43726e-08
6.37411e-09
0
0
0
0
0
0
0
0
6.03227e-08
0
0
0
0
0
0
0
0
0
0
0
0
0
6.52732e-07
3.34105e-06
7.00521e-06
1.15739e-05
1.6799e-05
2.1968e-05
2.63793e-05
3.03436e-05
3.37731e-05
3.68828e-05
3.34466e-05
1.62487e-05
3.34053e-06
2.07191e-06
1.99523e-06
7.13752e-07
1.46636e-06
0
0
0
0
1.0227e-06
4.58042e-07
0
0
0
0
2.38915e-06
0
0
7.64043e-06
1.4671e-05
9.02756e-06
3.75192e-06
1.01884e-06
9.92135e-06
1.54274e-05
1.07953e-05
6.68185e-06
4.35721e-06
4.77369e-07
0
0
0
0
0
0
0
0
0
0
4.87003e-07
1.31049e-06
1.6145e-06
1.41654e-06
8.87422e-07
2.10259e-07
0
0
0
0
0
0
0
3.92313e-06
4.78495e-06
4.42287e-06
4.67168e-06
5.30319e-06
3.85947e-06
2.71173e-06
3.15813e-06
1.67473e-06
8.16127e-07
3.82564e-07
1.54375e-07
6.11087e-08
2.9837e-08
0
0
0
0
0
0
0
0
0
0
0
0
0
0
0
0
0
0
0
0
0
0
0
0
4.26306e-07
1.28685e-06
2.63807e-06
4.82967e-06