/*--------------------------------*- C++ -*----------------------------------*\
  =========                 |
  \\      /  F ield         | OpenFOAM: The Open Source CFD Toolbox
   \\    /   O peration     | Website:  https://openfoam.org
    \\  /    A nd           | Version:  6
     \\/     M anipulation  |
\*---------------------------------------------------------------------------*/
FoamFile
{
    version     2.0;
    format      ascii;
    class       volScalarField;
    location    "0.2";
    object      p;
}
// * * * * * * * * * * * * * * * * * * * * * * * * * * * * * * * * * * * * * //

dimensions      [0 2 -2 0 0 0 0];

internalField   nonuniform List<scalar> 
12225
(
-613.531
-611.254
-607.335
-602.761
-597.974
-593.179
-588.475
-583.933
-579.522
-575.18
-570.889
-566.656
-562.475
-558.328
-554.161
-549.87
-545.257
-539.862
-614.448
-611.345
-607.375
-602.8
-598.01
-593.211
-588.503
-583.952
-579.531
-575.184
-570.898
-566.675
-562.506
-558.369
-554.217
-549.962
-545.442
-540.486
-614.494
-611.527
-607.478
-602.842
-598.013
-593.203
-588.498
-583.952
-579.534
-575.193
-570.917
-566.712
-562.566
-558.455
-554.342
-550.155
-545.81
-541.31
-614.718
-611.752
-607.54
-602.89
-598.072
-593.26
-588.543
-583.98
-579.549
-575.206
-570.943
-566.761
-562.647
-558.574
-554.513
-550.421
-546.275
-542.145
-615.857
-612.159
-607.735
-602.983
-598.112
-593.289
-588.576
-584.014
-579.581
-575.244
-570.997
-566.839
-562.756
-558.726
-554.733
-550.761
-546.818
-542.988
-617.005
-612.683
-607.965
-603.122
-598.208
-593.35
-588.616
-584.048
-579.62
-575.296
-571.07
-566.941
-562.898
-558.924
-555.013
-551.163
-547.403
-543.815
-620.251
-613.2
-608.186
-603.248
-598.302
-593.438
-588.695
-584.112
-579.672
-575.347
-571.136
-567.041
-563.051
-559.149
-555.333
-551.614
-548.024
-544.636
-621.909
-613.761
-608.508
-603.409
-598.381
-593.493
-588.742
-584.156
-579.727
-575.435
-571.268
-567.219
-563.276
-559.434
-555.702
-552.098
-548.657
-545.432
-620.926
-614.07
-608.833
-603.64
-598.547
-593.614
-588.844
-584.251
-579.82
-575.532
-571.379
-567.361
-563.474
-559.715
-556.089
-552.611
-549.309
-546.221
-617.979
-614.043
-609.132
-603.882
-598.722
-593.734
-588.924
-584.31
-579.888
-575.635
-571.534
-567.573
-563.751
-560.067
-556.529
-553.154
-549.964
-546.989
-615.81
-614.41
-609.519
-604.108
-598.865
-593.851
-589.034
-584.417
-580.003
-575.773
-571.704
-567.788
-564.026
-560.42
-556.974
-553.698
-550.611
-547.731
-618.336
-615.228
-610.087
-604.411
-598.999
-593.93
-589.11
-584.506
-580.112
-575.905
-571.863
-567.985
-564.274
-560.736
-557.373
-554.188
-551.195
-548.398
-621.854
-616.444
-610.592
-604.716
-599.23
-594.099
-589.215
-584.572
-580.184
-576.018
-572.037
-568.231
-564.599
-561.136
-557.839
-554.713
-551.772
-549.025
-626.416
-618.16
-611.42
-605.075
-599.352
-594.145
-589.274
-584.679
-580.337
-576.2
-572.232
-568.444
-564.859
-561.476
-558.278
-555.254
-552.408
-549.742
-628.741
-619.704
-612.027
-605.279
-599.439
-594.203
-589.314
-584.721
-580.415
-576.35
-572.482
-568.798
-565.302
-561.989
-558.85
-555.883
-553.088
-550.469
-632.489
-620.822
-612.388
-605.442
-599.447
-594.166
-589.301
-584.755
-580.497
-576.48
-572.669
-569.057
-565.641
-562.413
-559.365
-556.492
-553.789
-551.248
-635.425
-620.783
-611.475
-604.785
-599.076
-593.867
-589.059
-584.629
-580.5
-576.594
-572.889
-569.386
-566.073
-562.935
-559.961
-557.151
-554.502
-552.009
-618.253
-614.487
-608.459
-602.857
-597.775
-592.976
-588.491
-584.339
-580.419
-576.658
-573.063
-569.655
-566.434
-563.384
-560.496
-557.765
-555.183
-552.74
-618.68
-610.858
-604.958
-600.523
-596.244
-591.899
-587.702
-583.751
-579.997
-576.403
-572.977
-569.73
-566.652
-563.724
-560.937
-558.288
-555.772
-553.383
-603.178
-603.775
-601.353
-598.06
-594.429
-590.631
-586.848
-583.195
-579.685
-576.285
-572.992
-569.828
-566.812
-563.943
-561.214
-558.619
-556.152
-553.808
-599.384
-601.596
-599.771
-596.833
-593.414
-589.882
-586.31
-582.75
-579.299
-575.993
-572.818
-569.77
-566.851
-564.059
-561.388
-558.834
-556.394
-554.067
-608.03
-603.25
-599.736
-596.451
-592.956
-589.374
-585.865
-582.448
-579.129
-575.906
-572.771
-569.736
-566.825
-564.048
-561.402
-558.881
-556.478
-554.189
-609.98
-604.32
-599.948
-596.243
-592.652
-589.095
-585.649
-582.265
-578.942
-575.729
-572.649
-569.692
-566.85
-564.122
-561.507
-559.004
-556.608
-554.315
-610.809
-604.322
-599.807
-596.144
-592.516
-588.906
-585.455
-582.118
-578.85
-575.672
-572.603
-569.645
-566.802
-564.079
-561.481
-559.003
-556.636
-554.373
-607.547
-603.832
-599.664
-595.977
-592.33
-588.763
-585.346
-582.017
-578.753
-575.59
-572.551
-569.627
-566.809
-564.103
-561.511
-559.032
-556.662
-554.396
-609.729
-603.569
-599.372
-595.806
-592.243
-588.691
-585.264
-581.941
-578.696
-575.549
-572.519
-569.602
-566.791
-564.092
-561.509
-559.042
-556.686
-554.436
-606.682
-602.871
-599.183
-595.685
-592.129
-588.618
-585.232
-581.926
-578.683
-575.538
-572.511
-569.593
-566.78
-564.076
-561.488
-559.018
-556.664
-554.421
-604.23
-602.331
-599.035
-595.642
-592.115
-588.6
-585.197
-581.876
-578.628
-575.488
-572.472
-569.568
-566.769
-564.076
-561.498
-559.035
-556.687
-554.448
-605.113
-602.077
-598.909
-595.555
-592.054
-588.567
-585.186
-581.88
-578.642
-575.503
-572.481
-569.566
-566.754
-564.049
-561.461
-558.993
-556.648
-554.421
-602.929
-601.897
-598.86
-595.517
-592.036
-588.571
-585.2
-581.888
-578.639
-575.492
-572.466
-569.55
-566.737
-564.032
-561.444
-558.978
-556.637
-554.415
-498.2
-498.183
-498.149
-498.094
-498.016
-497.916
-497.802
-497.677
-497.537
-497.372
-497.178
-496.952
-496.693
-496.4
-496.073
-495.714
-495.323
-494.901
-494.451
-493.974
-493.47
-492.941
-492.386
-491.804
-491.196
-490.561
-489.9
-489.216
-488.509
-487.782
-487.033
-486.261
-485.461
-484.63
-483.767
-482.868
-481.931
-480.953
-479.932
-478.866
-477.757
-476.605
-475.39
-474.097
-472.768
-471.455
-470.101
-468.678
-467.317
-466.124
-464.827
-463.224
-462.101
-461.226
-460.008
-459.041
-458.875
-459.443
-460.534
-461.993
-463.714
-465.618
-467.651
-469.771
-471.934
-474.081
-476.129
-477.967
-479.465
-480.49
-480.925
-480.688
-479.733
-478.042
-475.641
-472.607
-469.024
-464.974
-460.537
-455.78
-450.764
-445.543
-440.168
-434.691
-429.166
-423.652
-418.209
-412.896
-407.769
-402.873
-398.24
-393.891
-389.836
-386.074
-382.598
-379.389
-376.422
-373.671
-371.113
-368.723
-366.471
-364.327
-362.262
-360.254
-358.286
-356.349
-354.443
-352.561
-350.693
-348.817
-346.919
-344.993
-343.056
-341.153
-339.321
-337.541
-335.789
-334.106
-332.402
-330.334
-327.945
-326.008
-324.932
-323.81
-321.415
-318.136
-315.325
-313.416
-311.911
-310.438
-308.962
-307.492
-306.048
-304.759
-303.821
-303.449
-303.879
-305.202
-307.286
-309.994
-313.25
-316.979
-321.056
-325.267
-329.302
-332.772
-335.249
-336.313
-335.598
-332.807
-327.73
-320.264
-310.453
-298.543
-284.998
-270.497
-255.852
-241.874
-229.228
-218.339
-209.375
-202.28
-196.855
-192.817
-189.848
-187.622
-185.844
-184.261
-182.671
-180.917
-178.903
-176.662
-174.317
-171.868
-169.151
-166.116
-162.889
-159.733
-156.874
-154.092
-498.284
-498.269
-498.236
-498.183
-498.112
-498.022
-497.918
-497.8
-497.662
-497.498
-497.304
-497.079
-496.821
-496.529
-496.203
-495.842
-495.448
-495.024
-494.572
-494.094
-493.592
-493.066
-492.515
-491.939
-491.335
-490.702
-490.041
-489.352
-488.639
-487.904
-487.147
-486.37
-485.567
-484.734
-483.866
-482.962
-482.021
-481.045
-480.03
-478.976
-477.884
-476.75
-475.566
-474.323
-473.025
-471.665
-470.232
-468.77
-467.341
-465.937
-464.648
-463.119
-461.611
-460.912
-460.364
-459.908
-460.04
-460.716
-461.825
-463.253
-464.929
-466.799
-468.825
-470.969
-473.186
-475.404
-477.523
-479.416
-480.937
-481.944
-482.314
-481.963
-480.859
-479.026
-476.518
-473.395
-469.739
-465.632
-461.152
-456.366
-451.33
-446.093
-440.703
-435.208
-429.66
-424.116
-418.637
-413.285
-408.116
-403.178
-398.507
-394.126
-390.043
-386.26
-382.765
-379.54
-376.559
-373.794
-371.217
-368.805
-366.531
-364.371
-362.296
-360.284
-358.314
-356.38
-354.479
-352.607
-350.745
-348.871
-346.972
-345.042
-343.1
-341.199
-339.38
-337.618
-335.878
-334.208
-332.643
-330.878
-328.627
-326.657
-325.446
-323.91
-321.251
-318.011
-315.304
-313.457
-311.945
-310.451
-308.998
-307.583
-306.189
-304.936
-304.066
-303.822
-304.385
-305.768
-307.852
-310.552
-313.814
-317.572
-321.697
-325.967
-330.062
-333.582
-336.092
-337.17
-336.449
-333.641
-328.545
-321.069
-311.253
-299.32
-285.726
-271.15
-256.413
-242.342
-229.616
-218.669
-209.665
-202.545
-197.098
-193.04
-190.049
-187.802
-186.007
-184.409
-182.795
-181.024
-179.025
-176.807
-174.458
-171.977
-169.207
-166.13
-162.892
-159.753
-156.919
-154.163
-498.434
-498.418
-498.386
-498.339
-498.277
-498.203
-498.114
-498.007
-497.875
-497.715
-497.527
-497.307
-497.054
-496.766
-496.441
-496.079
-495.682
-495.253
-494.797
-494.318
-493.817
-493.295
-492.751
-492.182
-491.586
-490.959
-490.298
-489.604
-488.877
-488.123
-487.344
-486.542
-485.719
-484.874
-484.008
-483.121
-482.208
-481.262
-480.273
-479.233
-478.147
-477.023
-475.87
-474.661
-473.358
-471.973
-470.51
-468.96
-467.358
-465.649
-463.925
-462.745
-462.026
-461.701
-461.712
-461.918
-462.387
-463.141
-464.184
-465.495
-467.052
-468.835
-470.825
-472.992
-475.281
-477.608
-479.846
-481.841
-483.426
-484.442
-484.762
-484.306
-483.052
-481.033
-478.324
-475.014
-471.199
-466.971
-462.403
-457.559
-452.485
-447.222
-441.806
-436.279
-430.687
-425.085
-419.535
-414.103
-408.85
-403.828
-399.078
-394.625
-390.479
-386.642
-383.102
-379.839
-376.826
-374.033
-371.429
-368.988
-366.684
-364.495
-362.397
-360.367
-358.387
-356.447
-354.547
-352.679
-350.824
-348.957
-347.059
-345.134
-343.209
-341.327
-339.508
-337.743
-336.046
-334.475
-333.017
-331.465
-329.65
-327.801
-325.886
-323.461
-320.494
-317.387
-314.878
-313.157
-311.728
-310.33
-309.003
-307.741
-306.513
-305.451
-304.821
-304.815
-305.498
-306.866
-308.884
-311.53
-314.778
-318.569
-322.768
-327.14
-331.345
-334.967
-337.558
-338.691
-338.001
-335.207
-330.121
-322.654
-312.834
-300.865
-287.181
-272.459
-257.541
-243.287
-230.406
-219.342
-210.26
-203.086
-197.599
-193.503
-190.471
-188.185
-186.356
-184.726
-183.083
-181.286
-179.268
-177.039
-174.652
-172.088
-169.25
-166.156
-162.951
-159.854
-156.991
-154.205
-498.663
-498.642
-498.606
-498.56
-498.507
-498.445
-498.369
-498.27
-498.146
-497.994
-497.812
-497.599
-497.353
-497.072
-496.753
-496.396
-496.001
-495.573
-495.116
-494.636
-494.136
-493.617
-493.078
-492.516
-491.927
-491.305
-490.645
-489.943
-489.201
-488.423
-487.615
-486.785
-485.938
-485.077
-484.203
-483.319
-482.427
-481.521
-480.582
-479.594
-478.552
-477.455
-476.308
-475.113
-473.843
-472.447
-470.899
-469.211
-467.338
-465.561
-464.295
-463.637
-463.502
-463.639
-463.959
-464.414
-465.014
-465.798
-466.798
-468.042
-469.545
-471.321
-473.37
-475.669
-478.158
-480.728
-483.221
-485.441
-487.179
-488.244
-488.501
-487.877
-486.367
-484.033
-480.989
-477.372
-473.309
-468.896
-464.205
-459.285
-454.166
-448.874
-443.429
-437.859
-432.205
-426.519
-420.864
-415.312
-409.934
-404.791
-399.927
-395.371
-391.133
-387.215
-383.604
-380.28
-377.214
-374.376
-371.732
-369.25
-366.905
-364.677
-362.55
-360.506
-358.522
-356.579
-354.669
-352.784
-350.917
-349.058
-347.193
-345.302
-343.399
-341.528
-339.723
-337.992
-336.352
-334.854
-333.511
-332.186
-330.648
-328.73
-326.222
-323.101
-319.732
-316.632
-314.285
-312.677
-311.378
-310.156
-309.004
-307.921
-306.935
-306.186
-305.849
-306.028
-306.762
-308.088
-310.037
-312.64
-315.904
-319.779
-324.123
-328.681
-333.088
-336.899
-339.641
-340.874
-340.239
-337.474
-332.411
-324.965
-315.151
-303.141
-289.336
-274.406
-259.226
-244.706
-231.598
-220.369
-211.174
-203.924
-198.378
-194.221
-191.126
-188.778
-186.893
-185.216
-183.53
-181.688
-179.622
-177.334
-174.871
-172.24
-169.38
-166.301
-163.124
-160.006
-157.08
-154.3
-498.986
-498.962
-498.922
-498.874
-498.82
-498.758
-498.682
-498.585
-498.462
-498.312
-498.133
-497.925
-497.684
-497.411
-497.103
-496.758
-496.378
-495.963
-495.518
-495.047
-494.555
-494.043
-493.51
-492.953
-492.368
-491.75
-491.09
-490.384
-489.63
-488.831
-487.993
-487.128
-486.249
-485.364
-484.478
-483.584
-482.686
-481.787
-480.884
-479.964
-479.015
-478.027
-476.988
-475.871
-474.645
-473.282
-471.73
-469.933
-468.155
-466.778
-466.001
-465.746
-465.824
-466.069
-466.431
-466.912
-467.539
-468.349
-469.375
-470.662
-472.246
-474.166
-476.448
-479.085
-482.011
-485.07
-488.025
-490.591
-492.5
-493.54
-493.579
-492.574
-490.577
-487.723
-484.196
-480.173
-475.802
-471.18
-466.36
-461.369
-456.216
-450.905
-445.436
-439.824
-434.099
-428.31
-422.525
-416.822
-411.285
-405.99
-400.988
-396.309
-391.964
-387.951
-384.259
-380.864
-377.736
-374.84
-372.142
-369.609
-367.215
-364.94
-362.772
-360.699
-358.698
-356.741
-354.808
-352.896
-351.011
-349.158
-347.315
-345.449
-343.567
-341.72
-339.942
-338.24
-336.657
-335.28
-334.115
-332.988
-331.612
-329.668
-326.838
-323.2
-319.437
-316.283
-314.007
-312.451
-311.246
-310.151
-309.107
-308.152
-307.378
-306.899
-306.799
-307.117
-307.899
-309.217
-311.151
-313.778
-317.137
-321.191
-325.787
-330.643
-335.354
-339.434
-342.375
-343.725
-343.139
-340.391
-335.342
-327.922
-318.125
-306.075
-292.128
-276.94
-261.426
-246.571
-233.184
-221.752
-212.423
-205.084
-199.463
-195.226
-192.042
-189.61
-187.648
-185.896
-184.14
-182.233
-180.098
-177.73
-175.188
-172.501
-169.611
-166.524
-163.337
-160.187
-157.236
-154.451
-499.415
-499.39
-499.35
-499.297
-499.232
-499.155
-499.064
-498.955
-498.823
-498.665
-498.481
-498.27
-498.03
-497.761
-497.464
-497.137
-496.781
-496.395
-495.981
-495.541
-495.077
-494.589
-494.076
-493.535
-492.961
-492.349
-491.689
-490.976
-490.206
-489.382
-488.513
-487.607
-486.675
-485.731
-484.786
-483.85
-482.931
-482.033
-481.17
-480.341
-479.536
-478.761
-477.986
-477.122
-476.085
-474.796
-473.237
-471.572
-470.073
-469.004
-468.447
-468.263
-468.309
-468.504
-468.827
-469.291
-469.927
-470.78
-471.899
-473.342
-475.169
-477.45
-480.237
-483.519
-487.16
-490.887
-494.335
-497.139
-499.008
-499.754
-499.298
-497.673
-495.02
-491.542
-487.469
-483.015
-478.341
-473.533
-468.617
-463.588
-458.429
-453.123
-447.65
-442.007
-436.215
-430.322
-424.395
-418.521
-412.801
-407.327
-402.165
-397.347
-392.882
-388.768
-384.994
-381.534
-378.35
-375.402
-372.651
-370.065
-367.618
-365.292
-363.073
-360.953
-358.916
-356.934
-354.98
-353.043
-351.137
-349.271
-347.427
-345.568
-343.7
-341.863
-340.096
-338.421
-336.899
-335.658
-334.716
-333.832
-332.647
-330.742
-327.69
-323.7
-319.743
-316.554
-314.261
-312.683
-311.481
-310.39
-309.351
-308.454
-307.824
-307.54
-307.613
-308.042
-308.88
-310.227
-312.21
-314.948
-318.508
-322.856
-327.815
-333.063
-338.148
-342.533
-345.677
-347.121
-346.547
-343.772
-338.707
-331.302
-321.531
-309.455
-295.365
-279.895
-264.01
-248.781
-235.089
-223.443
-213.981
-206.559
-200.863
-196.533
-193.241
-190.701
-188.642
-186.803
-184.955
-182.947
-180.711
-178.245
-175.609
-172.837
-169.884
-166.76
-163.562
-160.422
-157.452
-154.611
-499.959
-499.937
-499.895
-499.835
-499.755
-499.657
-499.541
-499.407
-499.252
-499.076
-498.875
-498.652
-498.406
-498.139
-497.851
-497.543
-497.217
-496.871
-496.505
-496.117
-495.707
-495.271
-494.807
-494.308
-493.767
-493.174
-492.52
-491.797
-491
-490.127
-489.188
-488.195
-487.167
-486.122
-485.081
-484.063
-483.088
-482.178
-481.353
-480.624
-480.018
-479.524
-479.034
-478.409
-477.515
-476.3
-474.861
-473.381
-472.103
-471.221
-470.734
-470.535
-470.541
-470.703
-471.006
-471.474
-472.156
-473.112
-474.417
-476.154
-478.417
-481.301
-484.857
-488.996
-493.436
-497.735
-501.435
-504.171
-505.718
-505.97
-504.921
-502.658
-499.352
-495.246
-490.623
-485.748
-480.801
-475.852
-470.887
-465.861
-460.73
-455.456
-450.002
-444.347
-438.502
-432.511
-426.444
-420.392
-414.467
-408.788
-403.443
-398.47
-393.868
-389.635
-385.762
-382.23
-378.999
-376.015
-373.226
-370.592
-368.092
-365.711
-363.439
-361.264
-359.176
-357.157
-355.179
-353.223
-351.295
-349.405
-347.541
-345.675
-343.804
-341.96
-340.179
-338.495
-336.991
-335.845
-335.149
-334.573
-333.538
-331.545
-328.331
-324.311
-320.426
-317.256
-314.929
-313.289
-312
-310.815
-309.714
-308.827
-308.291
-308.143
-308.337
-308.848
-309.739
-311.149
-313.248
-316.19
-320.054
-324.792
-330.189
-335.878
-341.359
-346.047
-349.364
-350.847
-350.213
-347.341
-342.21
-334.803
-325.073
-313.009
-298.812
-283.08
-266.826
-251.227
-237.237
-225.385
-215.805
-208.32
-202.564
-198.137
-194.718
-192.056
-189.894
-187.957
-185.999
-183.864
-181.495
-178.896
-176.123
-173.232
-170.199
-167.039
-163.843
-160.709
-157.689
-154.776
-500.609
-500.588
-500.545
-500.478
-500.387
-500.274
-500.138
-499.981
-499.801
-499.599
-499.376
-499.135
-498.878
-498.609
-498.331
-498.046
-497.755
-497.457
-497.15
-496.832
-496.496
-496.137
-495.746
-495.311
-494.818
-494.253
-493.602
-492.855
-492.006
-491.055
-490.009
-488.884
-487.707
-486.51
-485.322
-484.174
-483.105
-482.152
-481.334
-480.689
-480.237
-479.892
-479.5
-478.913
-478.04
-476.893
-475.607
-474.391
-473.426
-472.784
-472.428
-472.291
-472.327
-472.51
-472.853
-473.397
-474.207
-475.365
-476.973
-479.145
-482.005
-485.655
-490.086
-495.069
-500.144
-504.759
-508.461
-510.972
-512.163
-511.98
-510.421
-507.562
-503.601
-498.848
-493.665
-488.375
-483.182
-478.134
-473.165
-468.175
-463.095
-457.875
-452.461
-446.81
-440.921
-434.835
-428.625
-422.389
-416.248
-410.341
-404.791
-399.651
-394.916
-390.564
-386.586
-382.966
-379.668
-376.643
-373.826
-371.162
-368.619
-366.184
-363.855
-361.626
-359.485
-357.418
-355.408
-353.43
-351.476
-349.554
-347.661
-345.775
-343.886
-342.017
-340.2
-338.475
-336.931
-335.781
-335.204
-334.865
-333.958
-331.892
-328.665
-324.847
-321.169
-318.088
-315.769
-314.056
-312.639
-311.323
-310.136
-309.238
-308.762
-308.709
-308.987
-309.557
-310.509
-312.023
-314.305
-317.529
-321.77
-326.948
-332.81
-338.948
-344.817
-349.772
-353.191
-354.618
-353.83
-350.789
-345.553
-338.143
-328.489
-316.501
-302.278
-286.351
-269.775
-253.845
-239.598
-227.571
-217.884
-210.344
-204.544
-200.031
-196.469
-193.658
-191.385
-189.364
-187.303
-185.016
-182.47
-179.696
-176.754
-173.719
-170.595
-167.39
-164.176
-161.014
-157.934
-154.954
-501.361
-501.338
-501.29
-501.217
-501.12
-501
-500.855
-500.685
-500.49
-500.27
-500.03
-499.775
-499.51
-499.24
-498.972
-498.709
-498.454
-498.204
-497.958
-497.708
-497.447
-497.162
-496.838
-496.457
-495.999
-495.445
-494.777
-493.983
-493.054
-491.994
-490.812
-489.526
-488.17
-486.79
-485.432
-484.138
-482.959
-481.924
-481.072
-480.437
-479.958
-479.507
-478.966
-478.247
-477.335
-476.31
-475.324
-474.519
-473.952
-473.612
-473.457
-473.452
-473.583
-473.861
-474.325
-475.039
-476.082
-477.552
-479.571
-482.278
-485.812
-490.252
-495.494
-501.158
-506.656
-511.412
-515.04
-517.355
-518.275
-517.726
-515.676
-512.216
-507.603
-502.221
-496.504
-490.83
-485.421
-480.305
-475.365
-470.45
-465.465
-460.346
-455.019
-449.411
-443.493
-437.299
-430.912
-424.458
-418.083
-411.938
-406.16
-400.836
-395.964
-391.501
-387.427
-383.73
-380.373
-377.295
-374.434
-371.736
-369.16
-366.683
-364.303
-362.021
-359.827
-357.71
-355.658
-353.651
-351.671
-349.716
-347.788
-345.872
-343.953
-342.047
-340.181
-338.391
-336.757
-335.49
-334.828
-334.541
-333.784
-331.866
-328.824
-325.263
-321.798
-318.851
-316.57
-314.793
-313.254
-311.821
-310.558
-309.642
-309.205
-309.219
-309.559
-310.184
-311.218
-312.879
-315.395
-318.949
-323.596
-329.221
-335.537
-342.102
-348.311
-353.449
-356.862
-358.134
-357.126
-353.885
-348.531
-341.123
-331.578
-319.738
-305.591
-289.578
-272.767
-256.58
-242.163
-230.028
-220.246
-212.634
-206.784
-202.199
-198.503
-195.516
-193.102
-190.997
-188.858
-186.429
-183.669
-180.674
-177.532
-174.326
-171.078
-167.795
-164.531
-161.326
-158.195
-155.149
-502.25
-502.222
-502.16
-502.071
-501.962
-501.833
-501.68
-501.499
-501.291
-501.058
-500.805
-500.54
-500.27
-500.001
-499.743
-499.502
-499.279
-499.071
-498.873
-498.68
-498.479
-498.253
-497.977
-497.626
-497.173
-496.593
-495.866
-494.979
-493.926
-492.714
-491.361
-489.895
-488.357
-486.798
-485.274
-483.839
-482.542
-481.419
-480.493
-479.716
-478.993
-478.249
-477.45
-476.599
-475.753
-475.009
-474.446
-474.087
-473.899
-473.841
-473.889
-474.045
-474.327
-474.778
-475.455
-476.43
-477.792
-479.652
-482.147
-485.427
-489.622
-494.765
-500.657
-506.808
-512.564
-517.373
-520.924
-523.087
-523.775
-522.881
-520.363
-516.354
-511.165
-505.236
-499.046
-493.019
-487.416
-482.264
-477.411
-472.651
-467.851
-462.939
-457.809
-452.336
-446.439
-440.121
-433.481
-426.702
-419.996
-413.551
-407.512
-401.977
-396.965
-392.408
-388.247
-384.469
-381.056
-377.942
-375.047
-372.31
-369.694
-367.18
-364.76
-362.431
-360.192
-358.028
-355.929
-353.884
-351.873
-349.882
-347.912
-345.957
-344.003
-342.054
-340.13
-338.261
-336.508
-335.051
-334.142
-333.693
-333.016
-331.375
-328.659
-325.391
-322.165
-319.393
-317.187
-315.383
-313.762
-312.249
-310.936
-310.008
-309.599
-309.666
-310.059
-310.748
-311.887
-313.721
-316.497
-320.392
-325.435
-331.477
-338.207
-345.14
-351.601
-356.809
-360.118
-361.185
-359.945
-356.499
-351.009
-343.576
-334.133
-322.487
-308.529
-292.576
-275.66
-259.332
-244.869
-232.742
-222.912
-215.207
-209.276
-204.614
-200.8
-197.64
-195.06
-192.852
-190.643
-188.098
-185.12
-181.864
-178.482
-175.059
-171.64
-168.245
-164.914
-161.664
-158.48
-155.361
-503.317
-503.281
-503.192
-503.067
-502.935
-502.79
-502.618
-502.416
-502.185
-501.932
-501.663
-501.387
-501.114
-500.853
-500.616
-500.41
-500.231
-500.086
-499.983
-499.896
-499.788
-499.629
-499.389
-499.038
-498.541
-497.874
-497.017
-495.957
-494.692
-493.243
-491.642
-489.93
-488.161
-486.4
-484.71
-483.146
-481.747
-480.514
-479.403
-478.34
-477.279
-476.231
-475.246
-474.406
-473.781
-473.411
-473.277
-473.314
-473.445
-473.625
-473.86
-474.19
-474.667
-475.347
-476.294
-477.585
-479.31
-481.592
-484.575
-488.404
-493.179
-498.875
-505.222
-511.67
-517.558
-522.376
-525.862
-527.9
-528.373
-527.157
-524.233
-519.765
-514.108
-507.741
-501.168
-494.846
-489.087
-483.957
-479.272
-474.759
-470.249
-465.671
-460.897
-455.724
-449.977
-443.583
-436.628
-429.367
-422.139
-415.232
-408.824
-403.018
-397.846
-393.225
-389.027
-385.191
-381.716
-378.562
-375.639
-372.869
-370.215
-367.666
-365.212
-362.846
-360.566
-358.361
-356.219
-354.129
-352.079
-350.05
-348.038
-346.037
-344.038
-342.038
-340.053
-338.102
-336.228
-334.557
-333.306
-332.505
-331.701
-330.239
-327.882
-324.998
-322.119
-319.615
-317.553
-315.777
-314.128
-312.582
-311.249
-310.32
-309.937
-310.05
-310.498
-311.26
-312.518
-314.535
-317.567
-321.782
-327.18
-333.581
-340.651
-347.86
-354.461
-359.637
-362.785
-363.639
-362.18
-358.526
-352.862
-345.337
-335.945
-324.507
-310.841
-295.124
-278.302
-261.994
-247.614
-235.623
-225.838
-218.055
-212.017
-207.26
-203.339
-200.027
-197.27
-194.936
-192.657
-190.014
-186.83
-183.282
-179.618
-175.936
-172.302
-168.763
-165.348
-162.038
-158.787
-155.593
-504.506
-504.469
-504.363
-504.212
-504.06
-503.893
-503.692
-503.456
-503.192
-502.911
-502.625
-502.342
-502.086
-501.87
-501.68
-501.568
-501.57
-501.614
-501.676
-501.755
-501.797
-501.745
-501.551
-501.171
-500.573
-499.735
-498.637
-497.274
-495.663
-493.839
-491.853
-489.772
-487.673
-485.638
-483.739
-482.018
-480.462
-479.01
-477.602
-476.21
-474.858
-473.622
-472.617
-471.938
-471.624
-471.636
-471.889
-472.268
-472.677
-473.075
-473.488
-473.992
-474.671
-475.597
-476.828
-478.438
-480.526
-483.217
-486.653
-490.958
-496.19
-502.27
-508.885
-515.481
-521.424
-526.235
-529.662
-531.571
-531.831
-530.329
-527.072
-522.242
-516.242
-509.598
-502.815
-496.331
-490.489
-485.412
-480.926
-476.702
-472.555
-468.455
-464.265
-459.67
-454.316
-447.972
-440.659
-432.722
-424.704
-417.093
-410.162
-404.001
-398.615
-393.91
-389.704
-385.862
-382.356
-379.172
-376.228
-373.431
-370.732
-368.136
-365.652
-363.261
-360.946
-358.703
-356.52
-354.385
-352.29
-350.219
-348.16
-346.111
-344.064
-342.01
-339.959
-337.925
-335.936
-334.069
-332.475
-331.231
-330.098
-328.618
-326.558
-324.124
-321.702
-319.551
-317.688
-315.987
-314.358
-312.819
-311.495
-310.579
-310.221
-310.378
-310.886
-311.728
-313.105
-315.293
-318.553
-323.041
-328.724
-335.401
-342.715
-350.088
-356.719
-361.785
-364.745
-365.398
-363.741
-359.879
-353.999
-346.31
-336.898
-325.647
-312.342
-297.036
-280.553
-264.49
-250.33
-238.569
-228.926
-221.119
-214.974
-210.114
-206.094
-202.663
-199.749
-197.267
-194.902
-192.173
-188.799
-184.937
-180.955
-176.986
-173.093
-169.366
-165.835
-162.442
-159.116
-155.85
-505.675
-505.669
-505.612
-505.496
-505.34
-505.146
-504.908
-504.635
-504.341
-504.041
-503.755
-503.508
-503.31
-503.201
-503.225
-503.372
-503.642
-504.029
-504.48
-504.914
-505.225
-505.33
-505.183
-504.736
-503.956
-502.821
-501.327
-499.488
-497.338
-494.933
-492.36
-489.724
-487.139
-484.706
-482.484
-480.466
-478.584
-476.775
-475.029
-473.355
-471.818
-470.547
-469.678
-469.276
-469.311
-469.689
-470.285
-470.972
-471.647
-472.266
-472.873
-473.574
-474.465
-475.613
-477.087
-478.972
-481.363
-484.39
-488.193
-492.867
-498.424
-504.739
-511.484
-518.125
-524.065
-528.842
-532.191
-533.966
-534.043
-532.328
-528.829
-523.757
-517.58
-510.856
-504.068
-497.588
-491.734
-486.691
-482.35
-478.398
-474.67
-471.21
-467.893
-464.247
-459.639
-453.561
-445.897
-437.078
-427.93
-419.274
-411.59
-404.983
-399.355
-394.54
-390.313
-386.475
-382.957
-379.757
-376.812
-374.01
-371.28
-368.629
-366.095
-363.675
-361.335
-359.055
-356.831
-354.652
-352.51
-350.394
-348.289
-346.19
-344.092
-341.986
-339.871
-337.759
-335.665
-333.636
-331.764
-330.122
-328.618
-327.01
-325.152
-323.133
-321.157
-319.346
-317.675
-316.064
-314.482
-312.981
-311.688
-310.793
-310.458
-310.655
-311.222
-312.145
-313.634
-315.968
-319.407
-324.095
-329.977
-336.828
-344.27
-351.688
-358.247
-363.149
-365.913
-366.38
-364.547
-360.486
-354.379
-346.49
-337.018
-325.936
-313.022
-298.248
-282.324
-266.754
-252.98
-241.517
-232.075
-224.312
-218.098
-213.154
-209.048
-205.524
-202.495
-199.871
-197.392
-194.572
-191.024
-186.844
-182.508
-178.229
-174.034
-170.061
-166.37
-162.878
-159.474
-156.137
-506.941
-506.963
-506.965
-506.885
-506.723
-506.504
-506.243
-505.954
-505.658
-505.38
-505.137
-504.963
-504.938
-505.088
-505.425
-506.067
-507.015
-508.073
-509.107
-510.054
-510.791
-511.198
-511.186
-510.689
-509.666
-508.108
-506.038
-503.504
-500.565
-497.303
-493.842
-490.346
-486.986
-483.883
-481.065
-478.484
-476.084
-473.858
-471.816
-469.962
-468.365
-467.181
-466.541
-466.464
-466.855
-467.576
-468.493
-469.48
-470.426
-471.276
-472.071
-472.954
-474.063
-475.449
-477.159
-479.277
-481.907
-485.169
-489.206
-494.105
-499.842
-506.256
-513.009
-519.595
-525.456
-530.149
-533.412
-535.098
-535.084
-533.268
-529.653
-524.497
-518.315
-511.677
-505.027
-498.659
-492.832
-487.756
-483.438
-479.661
-476.309
-473.479
-471.09
-468.552
-464.948
-459.446
-451.685
-442.072
-431.693
-421.78
-413.142
-405.983
-400.095
-395.174
-390.928
-387.102
-383.574
-380.344
-377.387
-374.59
-371.853
-369.166
-366.579
-364.113
-361.738
-359.421
-357.153
-354.931
-352.742
-350.578
-348.428
-346.28
-344.132
-341.977
-339.808
-337.63
-335.455
-333.312
-331.255
-329.344
-327.568
-325.842
-324.102
-322.372
-320.711
-319.136
-317.603
-316.069
-314.545
-313.097
-311.848
-310.977
-310.656
-310.883
-311.504
-312.502
-314.084
-316.527
-320.084
-324.886
-330.864
-337.777
-345.225
-352.57
-358.972
-363.671
-366.228
-366.507
-364.514
-360.289
-353.992
-345.934
-336.427
-325.527
-313.015
-298.827
-283.614
-268.75
-255.53
-244.431
-235.217
-227.561
-221.339
-216.354
-212.201
-208.611
-205.503
-202.76
-200.149
-197.219
-193.505
-189.013
-184.291
-179.674
-175.139
-170.859
-166.964
-163.353
-159.867
-156.455
-508.444
-508.451
-508.419
-508.32
-508.152
-507.932
-507.679
-507.413
-507.153
-506.922
-506.772
-506.764
-507.014
-507.694
-508.796
-510.256
-512.075
-514.105
-516.136
-518.014
-519.556
-520.585
-520.935
-520.46
-519.102
-516.895
-513.956
-510.428
-506.413
-501.971
-497.208
-492.343
-487.67
-483.402
-479.586
-476.176
-473.155
-470.535
-468.291
-466.379
-464.844
-463.818
-463.418
-463.639
-464.346
-465.367
-466.558
-467.814
-469.036
-470.144
-471.141
-472.159
-473.398
-474.975
-476.908
-479.25
-482.096
-485.548
-489.727
-494.718
-500.489
-506.861
-513.497
-519.927
-525.646
-530.248
-533.478
-535.176
-535.192
-533.377
-529.752
-524.646
-518.603
-512.173
-505.746
-499.545
-493.753
-488.568
-484.099
-480.272
-477.017
-474.438
-472.519
-470.684
-467.883
-463.067
-455.624
-445.793
-434.733
-423.962
-414.59
-406.971
-400.868
-395.855
-391.575
-387.761
-384.242
-380.98
-377.977
-375.164
-372.429
-369.73
-367.105
-364.593
-362.172
-359.808
-357.491
-355.22
-352.986
-350.776
-348.581
-346.389
-344.196
-341.996
-339.785
-337.56
-335.331
-333.121
-330.971
-328.927
-327.015
-325.224
-323.539
-321.952
-320.45
-318.993
-317.535
-316.056
-314.584
-313.193
-311.992
-311.144
-310.824
-311.064
-311.724
-312.782
-314.431
-316.937
-320.541
-325.366
-331.331
-338.188
-345.519
-352.678
-358.848
-363.307
-365.636
-365.725
-363.591
-359.252
-352.839
-344.696
-335.225
-324.54
-312.427
-298.85
-284.457
-270.465
-257.941
-247.272
-238.31
-230.818
-224.674
-219.711
-215.557
-211.937
-208.78
-205.947
-203.194
-200.128
-196.243
-191.45
-186.319
-181.33
-176.426
-171.782
-167.628
-163.87
-160.293
-156.805
-510.16
-510.115
-510.022
-509.883
-509.704
-509.494
-509.269
-509.039
-508.822
-508.652
-508.627
-508.927
-509.737
-511.249
-513.532
-516.401
-519.658
-523.157
-526.683
-529.969
-532.695
-534.536
-535.211
-534.523
-532.447
-529.143
-524.91
-520.104
-514.932
-509.31
-503.07
-496.326
-489.606
-483.5
-478.265
-473.863
-470.202
-467.226
-464.867
-463.002
-461.599
-460.734
-460.511
-460.932
-461.874
-463.13
-464.537
-466
-467.455
-468.828
-470.083
-471.292
-472.638
-474.303
-476.353
-478.832