/*--------------------------------*- C++ -*----------------------------------*\
  =========                 |
  \\      /  F ield         | OpenFOAM: The Open Source CFD Toolbox
   \\    /   O peration     | Website:  https://openfoam.org
    \\  /    A nd           | Version:  6
     \\/     M anipulation  |
\*---------------------------------------------------------------------------*/
FoamFile
{
    version     2.0;
    format      ascii;
    class       surfaceScalarField;
    location    "0.2";
    object      phi_0;
}
// * * * * * * * * * * * * * * * * * * * * * * * * * * * * * * * * * * * * * //

dimensions      [0 3 -1 0 0 0 0];

internalField   nonuniform List<scalar> 
24170
(
3.17148e-06
7.93121e-08
3.05093e-06
1.20549e-07
2.93146e-06
1.19469e-07
2.82233e-06
1.09131e-07
2.7298e-06
9.25251e-08
2.64407e-06
8.57304e-08
2.55496e-06
8.91159e-08
2.46656e-06
8.83973e-08
2.38923e-06
7.73317e-08
2.32711e-06
6.21169e-08
2.27552e-06
5.15906e-08
2.22668e-06
4.88363e-08
2.17274e-06
5.39477e-08
2.11192e-06
6.08153e-08
2.04473e-06
6.71934e-08
1.97564e-06
6.9087e-08
1.9056e-06
7.00394e-08
7.80846e-08
1.82752e-06
3.42132e-06
7.99144e-08
3.45701e-06
8.48616e-08
3.48211e-06
9.43716e-08
3.47185e-06
1.19389e-07
3.45094e-06
1.13429e-07
3.44602e-06
9.06597e-08
3.45714e-06
7.79885e-08
3.4706e-06
7.49415e-08
3.47651e-06
7.14214e-08
3.4729e-06
6.57241e-08
3.46187e-06
6.26231e-08
3.44649e-06
6.42199e-08
3.42884e-06
7.15902e-08
3.40965e-06
8.00035e-08
3.38952e-06
8.73251e-08
3.36715e-06
9.14572e-08
3.34236e-06
9.48293e-08
1.04413e-07
3.31603e-06
3.7312e-06
1.04699e-07
3.71986e-06
9.62047e-08
3.69605e-06
1.18186e-07
3.6751e-06
1.40331e-07
3.66121e-06
1.27319e-07
3.65353e-06
9.83484e-08
3.65209e-06
7.94205e-08
3.65671e-06
7.03242e-08
3.66606e-06
6.20751e-08
3.67833e-06
5.34546e-08
3.69145e-06
4.95046e-08
3.70355e-06
5.21181e-08
3.7142e-06
6.09377e-08
3.72327e-06
7.09321e-08
3.73143e-06
7.91617e-08
3.73864e-06
8.42539e-08
3.74591e-06
8.7554e-08
9.49047e-08
3.75542e-06
3.93913e-06
-5.80567e-08
3.93777e-06
9.75683e-08
3.93618e-06
1.19771e-07
3.96723e-06
1.09286e-07
3.99316e-06
1.01389e-07
3.99112e-06
1.00387e-07
3.96762e-06
1.02914e-07
3.94041e-06
9.75333e-08
3.92226e-06
8.02326e-08
3.91691e-06
5.88042e-08
3.92242e-06
4.39947e-08
3.93472e-06
3.98157e-08
3.9505e-06
4.51524e-08
3.96679e-06
5.46492e-08
3.98195e-06
6.39973e-08
3.9952e-06
7.10054e-08
4.00655e-06
7.62073e-08
8.30727e-08
4.01838e-06
4.29508e-06
-4.54471e-09
4.27083e-06
1.21813e-07
4.26607e-06
1.24534e-07
4.27215e-06
1.03206e-07
4.27144e-06
1.02099e-07
4.25974e-06
1.12094e-07
4.24781e-06
1.14837e-07
4.24327e-06
1.02078e-07
4.24513e-06
7.83673e-08
4.24943e-06
5.4508e-08
4.25453e-06
3.88964e-08
4.2615e-06
3.28411e-08
4.27264e-06
3.40183e-08
4.2883e-06
3.8987e-08
4.30702e-06
4.52762e-08
4.32605e-06
5.19714e-08
4.34284e-06
5.94202e-08
6.81015e-08
4.35781e-06
4.51591e-06
-2.83517e-08
4.53098e-06
1.06745e-07
4.52038e-06
1.35133e-07
4.51541e-06
1.0818e-07
4.52203e-06
9.54763e-08
4.52904e-06
1.05088e-07
4.52948e-06
1.14393e-07
4.52646e-06
1.05094e-07
4.52701e-06
7.78207e-08
4.5354e-06
4.61163e-08
4.55149e-06
2.28104e-08
4.57165e-06
1.26761e-08
4.59156e-06
1.4113e-08
4.60723e-06
2.33186e-08
4.61658e-06
3.5919e-08
4.61938e-06
4.91732e-08
4.61782e-06
6.09855e-08
7.15744e-08
4.61434e-06
4.90874e-06
-7.27498e-08
4.93178e-06
8.37078e-08
4.91771e-06
1.49208e-07
4.9028e-06
1.23091e-07
4.9031e-06
9.51701e-08
4.91958e-06
8.86085e-08
4.94203e-06
9.19475e-08
4.95328e-06
9.38403e-08
4.94169e-06
8.94086e-08
4.91022e-06
7.75856e-08
4.87342e-06
5.96166e-08
4.84601e-06
4.00866e-08
4.83504e-06
2.50764e-08
4.83898e-06
1.93862e-08
4.85165e-06
2.32484e-08
4.86717e-06
3.36534e-08
4.88105e-06
4.71058e-08
5.95339e-08
4.89309e-06
5.31227e-06
-1.81947e-08
5.24671e-06
1.4926e-07
5.20226e-06
1.93666e-07
5.16752e-06
1.57828e-07
5.14407e-06
1.18621e-07
5.13633e-06
9.635e-08
5.14404e-06
8.42367e-08
5.16237e-06
7.551e-08
5.18511e-06
6.66672e-08
5.20799e-06
5.471e-08
5.22937e-06
3.82275e-08
5.24903e-06
2.04286e-08
5.26686e-06
7.2482e-09
5.28241e-06
3.8414e-09
5.29429e-06
1.13674e-08
5.30126e-06
2.66823e-08
5.30242e-06
4.59442e-08
6.35457e-08
5.29841e-06
5.50951e-06
-2.36216e-08
5.48625e-06
1.72523e-07
5.49584e-06
1.84072e-07
5.52783e-06
1.25836e-07
5.55879e-06
8.76643e-08
5.57386e-06
8.12839e-08
5.57093e-06
8.71607e-08
5.56223e-06
8.4217e-08
5.56343e-06
6.54659e-08
5.58103e-06
3.71107e-08
5.60958e-06
9.67414e-09
5.63824e-06
-8.23236e-09
5.65807e-06
-1.25786e-08
5.66607e-06
-4.1592e-09
5.66464e-06
1.27984e-08
5.65852e-06
3.27975e-08
5.65305e-06
5.14133e-08
6.60023e-08
5.6506e-06
5.9886e-06
1.34454e-07
5.95627e-06
2.04852e-07
5.95305e-06
1.87288e-07
5.92498e-06
1.53908e-07
5.90263e-06
1.10011e-07
5.90896e-06
7.49575e-08
5.93704e-06
5.90814e-08
5.96782e-06
5.34304e-08
5.98755e-06
4.57438e-08
5.99254e-06
3.2115e-08
5.98644e-06
1.57801e-08
5.97569e-06
2.51798e-09
5.96643e-06
-3.32397e-09
5.96259e-06
-3.22329e-10
5.96552e-06
9.87632e-09
5.97464e-06
2.36759e-08
5.98813e-06
3.79226e-08
4.9189e-08
6.00494e-06
6.45361e-06
-4.50163e-08
6.46468e-06
1.93781e-07
6.45197e-06
1.99994e-07
6.42028e-06
1.85601e-07
6.38889e-06
1.41401e-07
6.38075e-06
8.30907e-08
6.40081e-06
3.90225e-08
6.43623e-06
1.80097e-08
6.47026e-06
1.17148e-08
6.49265e-06
9.72656e-09
6.50107e-06
7.3568e-09
6.49806e-06
5.53156e-09
6.48846e-06
6.28012e-09
6.47733e-06
1.08037e-08
6.46832e-06
1.889e-08
6.46307e-06
2.89257e-08
6.46159e-06
3.94025e-08
4.87606e-08
6.46201e-06
5.7433e-06
2.66478e-08
5.82983e-06
1.07249e-07
5.84479e-06
1.85038e-07
5.81665e-06
2.13743e-07
5.78773e-06
1.70313e-07
5.76737e-06
1.03459e-07
5.75642e-06
4.99653e-08
5.75814e-06
1.62923e-08
5.77441e-06
-4.55762e-09
5.80066e-06
-1.65231e-08
5.82612e-06
-1.8103e-08
5.83926e-06
-7.60177e-09
5.8352e-06
1.03353e-08
5.81711e-06
2.88977e-08
5.79412e-06
4.18757e-08
5.77468e-06
4.83644e-08
5.764e-06
5.00835e-08
4.8019e-08
5.76474e-06
7.12373e-06
1.15134e-07
7.01226e-06
2.18724e-07
6.96702e-06
2.30272e-07
7.01069e-06
1.70074e-07
7.06974e-06
1.11259e-07
7.09944e-06
7.37643e-08
7.1034e-06
4.60018e-08
7.10261e-06
1.70872e-08
7.11053e-06
-1.24828e-08
7.1282e-06
-3.41888e-08
7.14924e-06
-3.91418e-08
7.16531e-06
-2.36739e-08
7.16951e-06
6.13035e-09
7.15892e-06
3.94935e-08
7.13447e-06
6.63284e-08
7.09981e-06
8.30149e-08
7.0611e-06
8.88011e-08
8.76303e-08
7.02149e-06
8.68467e-06
1.29111e-07
8.65925e-06
2.44148e-07
8.66397e-06
2.25555e-07
8.67364e-06
1.60397e-07
8.67184e-06
1.13061e-07
8.68851e-06
5.70963e-08
8.7434e-06
-8.89387e-09
8.81274e-06
-5.22516e-08
8.84914e-06
-4.88845e-08
8.81958e-06
-4.62525e-09
8.72669e-06
5.37492e-08
8.60261e-06
1.0041e-07
8.48595e-06
1.22782e-07
8.40381e-06
1.21637e-07
8.36542e-06
1.04721e-07
8.36739e-06
8.10435e-08
8.39973e-06
5.64609e-08
3.47972e-08
8.45256e-06
1.02881e-05
3.12233e-07
1.01403e-05
3.91987e-07
1.01061e-05
2.59675e-07
1.01403e-05
1.26243e-07
1.0194e-05
5.93281e-08
1.02405e-05
1.05844e-08
1.02798e-05
-4.81441e-08
1.03207e-05
-9.317e-08
1.03676e-05
-9.5728e-08
1.04175e-05
-5.45829e-08
1.04645e-05
6.80064e-09
1.05036e-05
6.1252e-08
1.05335e-05
9.29413e-08
1.05541e-05
1.00955e-07
1.05656e-05
9.32285e-08
1.05685e-05
7.81652e-08
1.0563e-05
6.19549e-08
4.68222e-08
1.0551e-05
1.28821e-05
4.7486e-07
1.28464e-05
4.2764e-07
1.28504e-05
2.55658e-07
1.28449e-05
1.31778e-07
1.28491e-05
5.51116e-08
1.28494e-05
1.03448e-08
1.28246e-05
-2.33791e-08
1.27826e-05
-5.11361e-08
1.27484e-05
-6.15469e-08
1.27385e-05
-4.46822e-08
1.27507e-05
-5.38419e-09
1.27721e-05
3.98283e-08
1.27906e-05
7.44523e-08
1.28008e-05
9.07515e-08
1.28036e-05
9.0392e-08
1.28023e-05
7.95288e-08
1.28001e-05
6.41219e-08
4.84713e-08
1.27984e-05
1.55087e-05
2.62764e-07
1.54884e-05
4.47924e-07
1.55133e-05
2.30829e-07
1.55838e-05
6.12693e-08
1.56357e-05
3.16792e-09
1.56585e-05
-1.24013e-08
1.56559e-05
-2.08484e-08
1.56309e-05
-2.60884e-08
1.5591e-05
-2.16457e-08
1.55496e-05
-3.25479e-09
1.5519e-05
2.52052e-08
1.55053e-05
5.34969e-08
1.5508e-05
7.17755e-08
1.55233e-05
7.54302e-08
1.55473e-05
6.63376e-08
1.55776e-05
4.93106e-08
1.56119e-05
2.97846e-08
1.04455e-08
1.56499e-05
1.85161e-05
2.02406e-07
1.8769e-05
1.95018e-07
1.8905e-05
9.47807e-08
1.88997e-05
6.65938e-08
1.88291e-05
7.38132e-08
1.87403e-05
7.63955e-08
1.86549e-05
6.45114e-08
1.85877e-05
4.11708e-08
1.85535e-05
1.24947e-08
1.85665e-05
-1.62362e-08
1.86323e-05
-4.06412e-08
1.87428e-05
-5.69129e-08
1.88774e-05
-6.29218e-08
1.90116e-05
-5.8762e-08
1.91244e-05
-4.63761e-08
1.92041e-05
-3.04405e-08
1.92482e-05
-1.43477e-08
-4.38946e-09
1.92631e-05
2.24264e-05
4.27645e-08
2.2651e-05
-2.95369e-08
2.28904e-05
-1.44666e-07
2.3079e-05
-1.21945e-07
2.31912e-05
-3.84577e-08
2.32274e-05
4.02363e-08
2.31981e-05
9.38256e-08
2.31242e-05
1.15032e-07
2.30359e-05
1.00779e-07
2.29631e-05
5.65882e-08
2.29253e-05
-2.83203e-09
2.29266e-05
-5.81785e-08
2.29577e-05
-9.4003e-08
2.30032e-05
-1.04343e-07
2.30493e-05
-9.24332e-08
2.30879e-05
-6.90182e-08
2.31167e-05
-4.31817e-08
-2.35643e-08
2.31359e-05
1.62573e-05
-1.22316e-07
1.63873e-05
-1.59495e-07
1.64046e-05
-1.61971e-07
1.64425e-05
-1.59826e-07
1.65209e-05
-1.16854e-07
1.66164e-05
-5.53368e-08
1.67071e-05
3.20134e-09
1.67713e-05
5.07897e-08
1.67946e-05
7.75069e-08
1.67796e-05
7.15733e-08
1.67457e-05
3.10465e-08
1.67176e-05
-3.00421e-08
1.6713e-05
-8.93893e-08
1.67369e-05
-1.28308e-07
1.67819e-05
-1.37448e-07
1.68339e-05
-1.21023e-07
1.68781e-05
-8.73112e-08
-5.05392e-08
1.6905e-05
1.45793e-05
-1.75684e-07
1.45103e-05
-9.0465e-08
1.45123e-05
-1.63996e-07
1.45706e-05
-2.18051e-07
1.46249e-05
-1.71235e-07
1.46279e-05
-5.82501e-08
1.45802e-05
5.08838e-08
1.45247e-05
1.06263e-07
1.45004e-05
1.01813e-07
1.45126e-05
5.93464e-08
1.45408e-05
2.87918e-09
1.45622e-05
-5.14502e-08
1.45672e-05
-9.43888e-08
1.45591e-05
-1.2025e-07
1.45475e-05
-1.25821e-07
1.45404e-05
-1.13887e-07
1.45426e-05
-8.95213e-08
-6.11487e-08
1.45532e-05
1.3013e-05
4.57746e-08
1.28898e-05
3.2829e-08
1.27933e-05
-6.74997e-08
1.2708e-05
-1.32799e-07
1.26641e-05
-1.27293e-07
1.26831e-05
-7.72602e-08
1.27525e-05
-1.8544e-08
1.28359e-05
2.28561e-08
1.28997e-05
3.80103e-08
1.29273e-05
3.18019e-08
1.29176e-05
1.25002e-08
1.28794e-05
-1.32047e-08
1.28246e-05
-3.9569e-08
1.27654e-05
-6.10845e-08
1.27126e-05
-7.30233e-08
1.26741e-05
-7.53599e-08
1.26541e-05
-6.95619e-08
-6.05095e-08
1.26535e-05
1.12736e-05
2.63993e-08
1.13551e-05
-4.86469e-08
1.12442e-05
4.3451e-08
1.10751e-05
3.62924e-08
1.09951e-05
-4.72793e-08
1.10305e-05
-1.12724e-07
1.11209e-05
-1.08953e-07
1.11968e-05
-5.30478e-08
1.12292e-05
5.67851e-09
1.12298e-05
3.11422e-08
1.12253e-05
1.70251e-08
1.12338e-05
-2.1715e-08
1.12582e-05
-6.39043e-08
1.12904e-05
-9.33279e-08
1.13197e-05
-1.02307e-07
1.13379e-05
-9.35556e-08
1.13413e-05
-7.29864e-08
-4.98598e-08
1.13307e-05
9.59497e-06
1.86365e-08
9.61899e-06
-7.2663e-08
9.66435e-06
-1.91283e-09
9.68898e-06
1.16581e-08
9.67779e-06
-3.60826e-08
9.64777e-06
-8.27064e-08
9.62756e-06
-8.87442e-08
9.63099e-06
-5.64811e-08
9.65267e-06
-1.59959e-08
9.67809e-06
5.71789e-09
9.69332e-06
1.80101e-09
9.69104e-06
-1.94391e-08
9.67304e-06
-4.59047e-08
9.64803e-06
-6.8313e-08
9.62692e-06
-8.12029e-08
9.61709e-06
-8.37202e-08
9.62156e-06
-7.74584e-08
-6.67159e-08
9.63842e-06
8.40694e-06
-8.42917e-08
8.37207e-06
-3.7799e-08
8.34782e-06
2.23441e-08
8.33893e-06
2.05432e-08
8.34189e-06
-3.90417e-08
8.34742e-06
-8.82351e-08
8.35312e-06
-9.44508e-08
8.36605e-06
-6.94074e-08
8.38797e-06
-3.79174e-08
8.40975e-06
-1.60604e-08
8.41986e-06
-8.3053e-09
8.41403e-06
-1.36102e-08
8.39696e-06
-2.88397e-08
8.37808e-06
-4.94323e-08
8.36577e-06
-6.88933e-08
8.36406e-06
-8.20097e-08
8.37305e-06
-8.64515e-08
-8.07952e-08
8.38713e-06
7.22376e-06
-1.09731e-07
7.26725e-06
-8.12864e-08
7.33145e-06
-4.18591e-08
7.38729e-06
-3.52931e-08
7.4028e-06
-5.45509e-08
7.38822e-06
-7.36535e-08
7.36645e-06
-7.26839e-08
7.34664e-06
-4.96024e-08
7.32673e-06
-1.80018e-08
7.30538e-06
5.28939e-09
7.28675e-06
1.03282e-08
7.27682e-06
-3.68716e-09
7.27861e-06
-3.06237e-08
7.29108e-06
-6.19049e-08
7.31121e-06
-8.90251e-08
7.33552e-06
-1.06317e-07
7.36103e-06
-1.11965e-07
-1.06928e-07
7.38716e-06
6.39139e-06
-2.38429e-08
6.34219e-06
-3.20921e-08
6.30096e-06
-6.30312e-10
6.2879e-06
-2.22323e-08
6.30031e-06
-6.69597e-08
6.32481e-06
-9.81513e-08
6.35241e-06
-1.00282e-07
6.38145e-06
-7.86481e-08
6.41088e-06
-4.74323e-08
6.43683e-06
-2.06629e-08
6.45438e-06
-7.21299e-09
6.45969e-06
-8.99945e-09
6.45129e-06
-2.22221e-08
6.43058e-06
-4.11953e-08
6.40192e-06
-6.03717e-08
6.37104e-06
-7.5434e-08
6.34372e-06
-8.4643e-08
-8.53716e-08
6.32216e-06
5.44756e-06
-6.58626e-08
5.42205e-06
-6.5828e-09
5.44866e-06
-2.7235e-08
5.51104e-06
-8.4618e-08
5.56532e-06
-1.21237e-07
5.58649e-06
-1.19327e-07
5.57531e-06
-8.91003e-08
5.54746e-06
-5.07986e-08
5.52067e-06
-2.06399e-08
5.50602e-06
-6.012e-09
5.50536e-06
-6.5507e-09
5.51422e-06
-1.78622e-08
5.52655e-06
-3.45573e-08
5.53782e-06
-5.24617e-08
5.54586e-06
-6.84117e-08
5.55052e-06
-8.00957e-08
5.55223e-06
-8.6353e-08
-8.60956e-08
5.55296e-06
4.77388e-06
-5.28379e-08
4.87425e-06
-1.06954e-07
4.93676e-06
-8.97406e-08
4.94486e-06
-9.27208e-08
4.92013e-06
-9.65025e-08
4.88504e-06
-8.42333e-08
4.85862e-06
-6.26868e-08
4.85288e-06
-4.50588e-08
4.86932e-06
-3.70773e-08
4.89989e-06
-3.65823e-08
4.93219e-06
-3.88509e-08
4.95542e-06
-4.10926e-08
4.96423e-06
-4.33694e-08
4.95893e-06
-4.71564e-08
4.94331e-06
-5.27917e-08
4.92197e-06
-5.87577e-08
4.89841e-06
-6.27898e-08
-6.33001e-08
4.87561e-06
4.18057e-06
4.07361e-06
3.98387e-06
3.89115e-06
3.79465e-06
3.71042e-06
3.64773e-06
3.60267e-06
3.56559e-06
3.52901e-06
3.49016e-06
3.44907e-06
3.4057e-06
3.35854e-06
3.30575e-06
3.24699e-06
3.1842e-06
3.1209e-06
4.4379e-08
-4.4379e-08
9.45711e-08
-5.01921e-08
1.15238e-07
-2.06673e-08
9.42666e-08
2.09718e-08
4.08188e-08
5.34478e-08
-5.17999e-08
9.26187e-08
-1.75009e-07
1.23209e-07
-2.75479e-07
1.0047e-07
-3.47636e-07
7.21564e-08
-3.95684e-07
4.80486e-08
-4.18695e-07
2.30106e-08
-4.20604e-07
1.90899e-09
-4.0517e-07
-1.54337e-08
-3.75827e-07
-2.93436e-08
-3.34466e-07
-4.1361e-08
-2.81886e-07
-5.25797e-08
-2.1874e-07
-6.31458e-08
-1.46516e-07
-7.22246e-08
-6.65354e-08
-7.99803e-08
2.06078e-08
-8.71432e-08
1.14467e-07
-9.38591e-08
2.14013e-07
-9.95465e-08
3.18439e-07
-1.04425e-07
4.27998e-07
-1.09559e-07
5.43815e-07
-1.15817e-07
6.6674e-07
-1.22925e-07
7.96115e-07
-1.29375e-07
9.29583e-07
-1.33468e-07
1.06278e-06
-1.33197e-07
1.18931e-06
-1.2653e-07
1.30295e-06
-1.13642e-07
1.3999e-06
-9.6948e-08
1.47902e-06
-7.91224e-08
1.54132e-06
-6.22993e-08
1.58881e-06
-4.7485e-08
1.62476e-06
-3.5952e-08
1.65701e-06
-3.22493e-08
1.69584e-06
-3.88323e-08
1.74946e-06
-5.36186e-08
1.81972e-06
-7.02584e-08
1.89435e-06
-7.46349e-08
1.95029e-06
-5.59393e-08
1.95173e-06
-1.44032e-09
1.83855e-06
1.13176e-07
1.5872e-06
2.51357e-07
1.30269e-06
2.84507e-07
1.12583e-06
1.76864e-07
1.00187e-06
1.23961e-07
7.35355e-07
2.66511e-07
4.61351e-07
2.74003e-07
6.07682e-07
-1.46331e-07
1.03632e-06
-4.28635e-07
1.21738e-06
-1.81061e-07
9.38206e-07
2.79173e-07
1.16676e-07
8.2153e-07
-8.59347e-07
9.76023e-07
-1.78948e-06
9.30132e-07
-2.65554e-06
8.66065e-07
-3.4691e-06
8.13553e-07
-4.23636e-06
7.67262e-07
-4.96912e-06
7.32764e-07
-5.67765e-06
7.08525e-07
-6.3711e-06
6.93455e-07
-7.05247e-06
6.81368e-07
-7.7181e-06
6.65626e-07
-8.35774e-06
6.39638e-07
-8.95685e-06
5.9911e-07
-9.49908e-06
5.42231e-07
-9.96856e-06
4.69485e-07
-1.03516e-05
3.83085e-07
-1.06381e-05
2.86489e-07
-1.08222e-05
1.84044e-07
-1.09032e-05
8.10088e-08
-1.08873e-05
-1.58776e-08
-1.07867e-05
-1.00647e-07
-1.06124e-05
-1.74296e-07
-1.03737e-05
-2.38624e-07
-1.00797e-05
-2.94078e-07
-9.73739e-06
-3.42274e-07
-9.35334e-06
-3.84047e-07
-8.93247e-06
-4.20876e-07
-8.47872e-06
-4.53746e-07
-7.99533e-06
-4.83394e-07
-7.48525e-06
-5.10081e-07
-6.95157e-06
-5.33678e-07
-6.39788e-06
-5.53688e-07
-5.82841e-06
-5.69469e-07
-5.24803e-06
-5.80375e-07
-4.66213e-06
-5.85908e-07
-4.0764e-06
-5.85731e-07
-3.49667e-06
-5.79727e-07
-2.92857e-06
-5.68098e-07
-2.37687e-06
-5.51699e-07
-1.84485e-06
-5.32025e-07
-1.3343e-06
-5.10542e-07
-8.46231e-07
-4.88074e-07
-3.81861e-07
-4.64369e-07
5.5223e-08
-4.37084e-07
4.58067e-07
-4.02844e-07
8.17854e-07
-3.59787e-07
1.12769e-06
-3.09834e-07
1.38789e-06
-2.60206e-07
1.60872e-06
-2.20828e-07
1.8075e-06
-1.98782e-07
2.00111e-06
-1.93602e-07
2.19788e-06
-1.9677e-07
2.39511e-06
-1.97238e-07
2.5851e-06
-1.8999e-07
2.76451e-06
-1.79411e-07
2.93888e-06
-1.74361e-07
3.12494e-06
-1.86067e-07
3.34953e-06
-2.2459e-07
3.61814e-06
-2.68609e-07
3.88947e-06
-2.71329e-07
4.1522e-06
-2.62734e-07
4.45709e-06
-3.04881e-07
4.74233e-06
-2.8524e-07
4.88155e-06
-1.39225e-07
4.91991e-06
-3.83614e-08
4.75091e-06
1.69007e-07
4.06743e-06
6.83473e-07
3.05119e-06
1.01624e-06
2.21149e-06
8.397e-07
1.89886e-06
3.12633e-07
2.20051e-06
-3.0165e-07
2.85653e-06
-6.5602e-07
3.47692e-06
-6.20394e-07
3.85555e-06
-3.78629e-07
3.99574e-06
-1.40185e-07
3.95822e-06
3.75157e-08
3.76882e-06
1.89403e-07
3.42162e-06
3.47201e-07
2.9082e-06
5.13417e-07
2.20349e-06
7.04715e-07
1.28037e-06
9.23114e-07
2.02361e-07
1.07801e-06
-8.98604e-07
1.10096e-06
-1.95787e-06
1.05926e-06
-2.97969e-06
1.02182e-06
-3.97934e-06
9.99652e-07
-4.96421e-06
9.84871e-07
-5.93057e-06
9.66358e-07
-6.86505e-06
9.34479e-07
-7.74731e-06
8.82267e-07
-8.55323e-06
8.05918e-07
-9.25765e-06
7.04415e-07
-9.83708e-06
5.79431e-07
-1.02715e-05
4.34418e-07
-1.05436e-05
2.72068e-07
-1.06402e-05
9.66796e-08
-1.05585e-05
-8.1765e-08
-1.02953e-05
-2.63174e-07
-9.84441e-06
-4.50894e-07
-9.20473e-06
-6.39677e-07
-8.38343e-06
-8.21303e-07
-7.40063e-06
-9.82803e-07
-6.28937e-06
-1.11126e-06
-5.09242e-06
-1.19695e-06
-3.85646e-06
-1.23596e-06
-2.6257e-06
-1.23076e-06
-1.43735e-06
-1.18835e-06
-3.20004e-07
-1.11735e-06
7.06151e-07
-1.02616e-06
1.6301e-06
-9.23947e-07
2.44533e-06
-8.1523e-07
3.14789e-06
-7.02561e-07
3.73978e-06
-5.91889e-07
4.22608e-06
-4.86305e-07
4.59722e-06
-3.71137e-07
4.79943e-06
-2.02211e-07
4.76316e-06
3.62691e-08
4.49368e-06
2.69479e-07
4.09863e-06
3.95049e-07
3.73303e-06
3.65606e-07
3.48623e-06
2.46798e-07
3.34674e-06
1.39489e-07
3.18953e-06
1.57215e-07
2.88681e-06
3.02714e-07
2.5164e-06
3.70416e-07
2.32305e-07
2.28409e-06
3.04865e-08
-7.48655e-08
3.43974e-08
-5.4103e-08
3.44317e-09
1.02869e-08
-6.08118e-08
8.52268e-08
-1.46445e-07
1.39081e-07
-2.21365e-07
1.67539e-07
-2.67404e-07
1.69248e-07
-3.04639e-07
1.37705e-07
-3.36714e-07
1.04231e-07
-3.59366e-07
7.07004e-08
-3.73427e-07
3.70716e-08
-3.77395e-07
5.87755e-09
-3.68637e-07
-2.41923e-08
-3.44635e-07
-5.33454e-08
-3.04616e-07
-8.13805e-08
-2.49546e-07
-1.07649e-07
-1.81475e-07
-1.31217e-07
-1.03374e-07
-1.50326e-07
-1.88826e-08
-1.64471e-07
6.88279e-08
-1.74854e-07
1.57853e-07
-1.82884e-07
2.47492e-07
-1.89185e-07
3.3797e-07
-1.94904e-07
4.30369e-07
-2.01958e-07
5.26724e-07
-2.12172e-07
6.29501e-07
-2.25702e-07
7.40291e-07
-2.40164e-07
8.58898e-07
-2.52076e-07
9.8315e-07
-2.57448e-07
1.10798e-06
-2.5136e-07
1.22535e-06
-2.31014e-07
1.32662e-06
-1.98214e-07
1.40446e-06
-1.56967e-07
1.45446e-06
-1.12296e-07
1.47868e-06
-7.1701e-08
1.49028e-06
-4.75587e-08
1.50757e-06
-4.95377e-08
1.54475e-06
-7.60127e-08
1.61246e-06
-1.21326e-07
1.71562e-06
-1.7342e-07
1.83821e-06
-1.97223e-07
1.9454e-06
-1.63127e-07
2.03003e-06
-8.60701e-08
2.10288e-06
4.03224e-08
2.13979e-06
2.14445e-07
2.0687e-06
3.55602e-07
1.80405e-06
4.41508e-07
1.40314e-06
5.24876e-07
1.23818e-06
4.31473e-07
1.56811e-06
-5.59282e-08
1.63328e-06
-2.11507e-07
7.85617e-07
4.19031e-07
-6.81917e-07
1.28647e-06
-2.00096e-06
1.59822e-06
-2.91496e-06
1.73553e-06
-3.65846e-06
1.71952e-06
-4.36628e-06
1.63796e-06
-5.03544e-06
1.53522e-06
-5.66536e-06
1.44348e-06
-6.26571e-06
1.36761e-06
-6.84593e-06
1.31299e-06
-7.41284e-06
1.27543e-06
-7.96789e-06
1.2485e-06
-8.50852e-06
1.222e-06
-9.02871e-06
1.18582e-06
-9.52041e-06
1.13134e-06
-9.9739e-06
1.0526e-06
-1.03779e-05
9.46272e-07
-1.07206e-05
8.12162e-07
-1.09913e-05
6.53761e-07
-1.11826e-05
4.77788e-07
-1.12916e-05
2.9307e-07
-1.13197e-05
1.09079e-07
-1.12692e-05
-6.63614e-08
-1.11411e-05
-2.28803e-07
-1.09411e-05
-3.74201e-07
-1.06792e-05
-5.00536e-07
-1.0364e-05
-6.09346e-07
-1.00034e-05
-7.02818e-07
-9.60352e-06
-7.83953e-07
-9.1689e-06
-8.55494e-07
-8.70285e-06
-9.19798e-07
-8.20788e-06
-9.78357e-07
-7.68627e-06
-1.03169e-06
-7.14056e-06
-1.07939e-06
-6.57393e-06
-1.12031e-06
-5.99051e-06
-1.15289e-06
-5.39536e-06
-1.17552e-06
-4.79433e-06
-1.18694e-06
-4.19355e-06
-1.18652e-06
-3.59898e-06
-1.17429e-06
-3.01617e-06
-1.1509e-06
-2.45024e-06
-1.11763e-06
-1.90582e-06
-1.07645e-06
-1.38627e-06
-1.03009e-06
-8.93092e-07
-9.81248e-07
-4.25591e-07
-9.31871e-07
1.91996e-08
-8.81874e-07
4.44113e-07
-8.27758e-07
8.48812e-07
-7.64485e-07
1.22887e-06
-6.89888e-07
1.5777e-06
-6.09038e-07
1.89159e-06
-5.34716e-07
2.17433e-06
-4.81526e-07
2.43605e-06
-4.55321e-07
2.68485e-06
-4.45572e-07
2.91888e-06
-4.31264e-07
3.1274e-06
-3.98511e-07
3.30232e-06
-3.54328e-07
3.45157e-06
-3.23613e-07
3.59726e-06
-3.31758e-07
3.76381e-06
-3.91143e-07
3.98376e-06
-4.8855e-07
4.27885e-06
-5.66427e-07
4.59707e-06
-5.80951e-07
4.88111e-06
-5.88919e-07
5.19025e-06
-5.94385e-07
5.51456e-06
-4.6353e-07
5.70971e-06
-2.33512e-07
5.8228e-06
5.59191e-08
5.89791e-06
6.08357e-07
5.64037e-06
1.27378e-06
4.92709e-06
1.55298e-06
4.15922e-06
1.08051e-06
3.78825e-06
6.93128e-08
3.8321e-06
-6.99865e-07
3.97896e-06
-7.67255e-07
3.96807e-06
-3.67739e-07
3.73412e-06
9.37657e-08
3.32458e-06
4.47054e-07
2.78023e-06
7.33755e-07
2.07745e-06
1.04998e-06
1.16255e-06
1.42831e-06
6.05175e-08
1.80675e-06
-1.08268e-06
2.06631e-06
-2.13506e-06
2.13039e-06
-3.08606e-06
2.05196e-06
-3.97017e-06
1.94338e-06
-4.80699e-06
1.85864e-06
-5.60948e-06
1.80214e-06
-6.38507e-06
1.76046e-06
-7.13432e-06
1.71561e-06
-7.85104e-06
1.6512e-06
-8.52311e-06
1.55434e-06
-9.13392e-06
1.41673e-06
-9.66452e-06
1.23502e-06
-1.00959e-05
1.01086e-06
-1.04111e-05
7.49616e-07
-1.05972e-05
4.58156e-07
-1.06431e-05
1.42521e-07
-1.05294e-05
-1.95408e-07
-1.02391e-05
-5.53554e-07
-9.76351e-06
-9.26433e-07
-9.09911e-06
-1.30408e-06
-8.25299e-06
-1.66742e-06
-7.2454e-06
-1.99039e-06
-6.11052e-06
-2.24614e-06
-4.89256e-06
-2.41491e-06
-3.63917e-06
-2.48935e-06
-2.39483e-06
-2.47509e-06
-1.19621e-06
-2.38697e-06
-7.04998e-08
-2.24306e-06
9.65226e-07
-2.06188e-06
1.9024e-06
-1.86112e-06
2.73833e-06
-1.65116e-06
3.47337e-06
-1.4376e-06
4.10715e-06
-1.22567e-06
4.63321e-06
-1.01236e-06
5.04688e-06
-7.84806e-07
5.37635e-06
-5.31689e-07
5.6435e-06
-2.30874e-07
5.8021e-06
1.10879e-07
5.78775e-06
4.09402e-07
5.59306e-06
5.60291e-07
5.25923e-06
5.80624e-07
4.86232e-06
5.36407e-07
4.50996e-06
5.09573e-07
4.22777e-06
5.84902e-07
3.92561e-06
6.72581e-07
5.62686e-07
3.59522e-06
-1.6313e-08
-5.85525e-08
-5.22394e-08
-1.81766e-08
-9.15701e-08
4.96176e-08
-1.22044e-07
1.15701e-07
-1.45712e-07
1.62749e-07
-1.59463e-07
1.81291e-07
-1.63316e-07
1.73101e-07
-1.70627e-07
1.45016e-07
-1.81144e-07
1.14748e-07
-1.91697e-07
8.1253e-08
-1.98863e-07
4.42381e-08
-1.98138e-07
5.15186e-09
-1.85664e-07
-3.66662e-08
-1.58137e-07
-8.08717e-08
-1.13667e-07
-1.25851e-07
-5.22677e-08
-1.69048e-07
2.33199e-08
-2.06804e-07
1.0858e-07
-2.35586e-07
1.97911e-07
-2.53803e-07
2.86127e-07
-2.6307e-07
3.69767e-07
-2.66524e-07
4.47598e-07
-2.67017e-07
5.20082e-07
-2.67387e-07
5.8881e-07
-2.70687e-07
6.55965e-07
-2.79327e-07
7.23992e-07
-2.93729e-07
7.95327e-07
-3.11499e-07
8.71332e-07
-3.28081e-07
9.52082e-07
-3.38198e-07
1.03664e-06
-3.35916e-07
1.12188e-06
-3.16257e-07
1.20123e-06
-2.77567e-07
1.26861e-06
-2.24346e-07
1.32277e-06
-1.66456e-07
1.36537e-06
-1.14298e-07
1.40173e-06
-8.39203e-08
1.43968e-06
-8.74827e-08
1.49107e-06
-1.2741e-07
1.56479e-06
-1.95042e-07
1.65574e-06
-2.6437e-07
1.76283e-06
-3.0431e-07
1.88294e-06
-2.83238e-07
1.97096e-06
-1.74096e-07
1.99152e-06
1.97646e-08
1.95214e-06
2.5383e-07
1.83647e-06
4.71267e-07
1.64757e-06
6.3041e-07
1.59739e-06
5.75059e-07
1.7567e-06
2.72158e-07
1.37184e-06
3.28928e-07
-7.06443e-09
1.1674e-06
-1.58515e-06
1.99711e-06
-2.65089e-06
2.35221e-06
-3.44658e-06
2.39391e-06
-4.04154e-06
2.33049e-06
-4.52771e-06
2.2057e-06
-4.97801e-06
2.08826e-06
-5.42333e-06
1.98053e-06
-5.87589e-06
1.89604e-06
-6.34346e-06
1.83518e-06
-6.82911e-06
1.79864e-06
-7.33446e-06
1.78078e-06
-7.85803e-06
1.77208e-06
-8.39615e-06
1.76012e-06
-8.94225e-06
1.73192e-06
-9.48456e-06
1.67365e-06
-1.0004e-05
1.57208e-06
-1.04764e-05
1.41865e-06
-1.08775e-05
1.21328e-06
-1.11881e-05
9.64352e-07
-1.13965e-05
6.86154e-07
-1.1499e-05
3.95611e-07
-1.14991e-05
1.09129e-07
-1.14053e-05
-1.60172e-07
-1.12309e-05
-4.03176e-07
-1.09897e-05
-6.15436e-07
-1.06936e-05
-7.96641e-07
-1.03532e-05
-9.49755e-07
-9.97627e-06
-1.0797e-06
-9.56837e-06
-1.19185e-06
-9.13277e-06
-1.29109e-06
-8.67124e-06
-1.38133e-06
-8.18463e-06
-1.46496e-06
-7.67368e-06
-1.54264e-06
-7.1396e-06
-1.61347e-06
-6.5845e-06
-1.67541e-06
-6.01162e-06
-1.72577e-06
-5.42535e-06
-1.7618e-06
-4.83089e-06
-1.7814e-06
-4.23375e-06
-1.78366e-06
-3.63933e-06
-1.76871e-06
-3.05293e-06
-1.7373e-06
-2.47997e-06
-1.6906e-06
-1.92631e-06
-1.63011e-06
-1.3983e-06
-1.5581e-06
-9.01942e-07
-1.4776e-06
-4.41573e-07
-1.39224e-06
-1.77783e-08
-1.30567e-06
3.73122e-07
-1.21866e-06
7.35984e-07
-1.12735e-06
1.0725e-06
-1.0264e-06
1.38118e-06
-9.17727e-07
1.66374e-06
-8.1727e-07
1.93004e-06
-7.47825e-07
2.1923e-06
-7.17583e-07
2.45109e-06
-7.04366e-07
2.68861e-06
-6.68777e-07
2.87825e-06
-5.8815e-07
3.00495e-06
-4.81035e-07
3.08803e-06
-4.06695e-07
3.18373e-06
-4.27455e-07
3.34329e-06
-5.50698e-07
3.57095e-06
-7.16212e-07
3.84388e-06
-8.39362e-07
4.14231e-06
-8.79379e-07
4.45037e-06
-8.96982e-07
4.79431e-06
-9.38321e-07
5.1884e-06
-8.57625e-07
5.51219e-06
-5.57296e-07
5.73738e-06
-1.69276e-07
5.98283e-06
3.62912e-07
6.0729e-06
1.1837e-06
5.76159e-06
1.8643e-06
5.17699e-06
1.66511e-06
4.60101e-06
6.45299e-07
4.10715e-06
-2.06012e-07
3.59545e-06
-2.5555e-07
3.00937e-06
2.18338e-07
2.37283e-06
7.30305e-07
1.71238e-06
1.10751e-06
1.01243e-06
1.4337e-06
2.34759e-07
1.82765e-06
-6.1745e-07
2.28052e-06
-1.46652e-06
2.65582e-06
-2.22557e-06
2.82536e-06
-2.89145e-06
2.79627e-06
-3.51978e-06
2.68029e-06
-4.14414e-06
2.56773e-06
-4.77486e-06
2.48937e-06
-5.41835e-06
2.44563e-06
-6.07886e-06
2.42097e-06
-6.75549e-06
2.39223e-06
-7.4388e-06
2.33451e-06
-8.10989e-06
2.22543e-06
-8.74228e-06
2.04911e-06
-9.30619e-06
1.79893e-06
-9.77288e-06
1.47754e-06
-1.01176e-05
1.09435e-06
-1.03211e-05
6.61669e-07
-1.03684e-05
1.8983e-07
-1.02481e-05
-3.15718e-07
-9.95079e-06
-8.50884e-07
-9.46756e-06
-1.40966e-06
-8.79413e-06
-1.97752e-06
-7.93616e-06
-2.52539e-06
-6.91422e-06
-3.01232e-06
-5.7645e-06
-3.39586e-06
-4.53407e-06
-3.64534e-06
-3.27304e-06
-3.75038e-06
-2.02735e-06
-3.72078e-06
-8.34218e-07
-3.5801e-06
2.7937e-07
-3.35665e-06
1.29698e-06
-3.07949e-06
2.20853e-06
-2.77266e-06
3.00835e-06
-2.45099e-06
3.69585e-06
-2.12511e-06
4.27891e-06
-1.80872e-06
4.7748e-06
-1.50825e-06
5.19219e-06
-1.2022e-06
5.5271e-06
-8.66596e-07
5.78857e-06
-4.92349e-07
5.98996e-06
-9.05087e-08
6.10387e-06
2.95494e-07
6.07481e-06
5.89352e-07
5.88286e-06
7.72575e-07
5.53716e-06
8.82104e-07
5.09729e-06
9.49446e-07
4.66883e-06
1.01336e-06
4.29171e-06
1.0497e-06
9.20394e-07
3.934e-06
-7.97687e-09
-5.05757e-08
-9.04894e-09
-1.71046e-08
-4.05394e-09
4.46226e-08
7.47266e-09
1.04174e-07
2.44048e-08
1.45817e-07
4.24839e-08
1.63212e-07
5.77594e-08
1.57825e-07
6.73735e-08
1.35402e-07
7.62635e-08
1.05858e-07
8.71053e-08
7.04112e-08
1.0174e-07
2.96037e-08
1.21672e-07
-1.47806e-08
1.48098e-07
-6.30926e-08
1.82617e-07
-1.1539e-07
2.27222e-07
-1.70456e-07
2.8375e-07
-2.25576e-07
3.53033e-07
-2.76087e-07
4.34191e-07
-3.16744e-07
5.24023e-07
-3.43635e-07
6.17609e-07
-3.56655e-07
7.10338e-07
-3.59253e-07
7.99383e-07
-3.56061e-07
8.83486e-07
-3.51491e-07
9.61989e-07
-3.4919e-07
1.03418e-06
-3.5152e-07
1.09935e-06
-3.589e-07
1.15704e-06
-3.69184e-07
1.20746e-06
-3.78503e-07
1.25138e-06
-3.82121e-07
1.29163e-06
-3.76158e-07
1.33439e-06
-3.59024e-07
1.38412e-06
-3.27294e-07
1.44514e-06
-2.85368e-07
1.51954e-06
-2.4085e-07
1.60495e-06
-1.99716e-07
1.69357e-06
-1.72533e-07
1.76575e-06
-1.59665e-07
1.81601e-06
-1.77674e-07
1.8632e-06
-2.42232e-07
1.91581e-06
-3.16975e-07
1.96022e-06
-3.48728e-07
1.98139e-06
-3.04403e-07
1.97335e-06
-1.66056e-07
1.94335e-06
4.97629e-08
1.89647e-06
3.00708e-07
1.84513e-06
5.22608e-07
1.86396e-06
6.11584e-07
1.82669e-06
6.12328e-07
1.1623e-06
9.36544e-07
-3.09527e-07
1.80076e-06
-1.78045e-06
2.63833e-06
-2.77846e-06
2.99513e-06
-3.41213e-06
2.98588e-06
-3.87853e-06
2.8603e-06
-4.25703e-06
2.70899e-06
-4.60636e-06
2.55503e-06
-4.95138e-06
2.43328e-06
-5.31436e-06
2.34351e-06
-5.70683e-06
2.28851e-06
-6.13792e-06
2.26627e-06
-6.61314e-06
2.27387e-06
-7.13611e-06
2.30374e-06
-7.70786e-06
2.34383e-06
-8.32434e-06
2.3766e-06
-8.96954e-06
2.37712e-06
-9.61134e-06
2.31545e-06
-1.0207e-05
2.1677e-06
-1.07151e-05
1.92681e-06
-1.11062e-05
1.60432e-06
-1.13654e-05
1.22356e-06
-1.14914e-05
8.12168e-07
-1.14928e-05
3.9708e-07
-1.13847e-05
9.56134e-10
-1.11853e-05
-3.59554e-07
-1.09155e-05
-6.72972e-07
-1.05952e-05
-9.35748e-07
-1.02402e-05
-1.15165e-06
-9.86118e-06
-1.32876e-06
-9.46432e-06
-1.47655e-06
-9.05238e-06
-1.6038e-06
-8.62567e-06
-1.7178e-06
-8.183e-06
-1.824e-06
-7.72249e-06
-1.92548e-06
-7.24257e-06
-2.02255e-06
-6.74287e-06
-2.11318e-06
-6.22454e-06
-2.19374e-06
-5.69046e-06
-2.25985e-06
-5.14508e-06
-2.30717e-06
-4.59383e-06
-2.33265e-06
-4.0419e-06
-2.33559e-06
-3.49328e-06
-2.31733e-06
-2.95078e-06
-2.2798e-06
-2.41657e-06
-2.2248e-06
-1.89273e-06
-2.15396e-06
-1.38174e-06
-2.06909e-06
-8.87168e-07
-1.97217e-06
-4.14505e-07
-1.8649e-06
2.94473e-08
-1.74962e-06
4.40354e-07
-1.62957e-06
8.1957e-07
-1.50656e-06
1.17153e-06
-1.37836e-06
1.49721e-06
-1.2434e-06
1.79313e-06
-1.11319e-06
2.05951e-06
-1.01421e-06
2.3047e-06
-9.62767e-07
2.53267e-06
-9.32344e-07
2.7263e-06
-8.62403e-07
2.85897e-06
-7.20824e-07
2.93427e-06
-5.56328e-07
3.00036e-06
-4.7279e-07
3.11394e-06
-5.41032e-07
3.29604e-06
-7.328e-07
3.52539e-06
-9.45557e-07
3.7717e-06
-1.08567e-06
4.02664e-06
-1.13432e-06
4.2931e-06
-1.16344e-06
4.58922e-06
-1.23445e-06
4.95021e-06
-1.21861e-06
5.31575e-06
-9.22835e-07
5.56858e-06
-4.22114e-07
5.73811e-06
1.93382e-07
5.84008e-06