/*--------------------------------*- C++ -*----------------------------------*\
  =========                 |
  \\      /  F ield         | OpenFOAM: The Open Source CFD Toolbox
   \\    /   O peration     | Website:  https://openfoam.org
    \\  /    A nd           | Version:  6
     \\/     M anipulation  |
\*---------------------------------------------------------------------------*/
FoamFile
{
    version     2.0;
    format      ascii;
    class       volScalarField;
    location    "0.2";
    object      pPrime2Mean;
}
// * * * * * * * * * * * * * * * * * * * * * * * * * * * * * * * * * * * * * //

dimensions      [0 4 -4 0 0 0 0];

internalField   nonuniform List<scalar> 
12225
(
2.31671e+06
2.27994e+06
2.24328e+06
2.2076e+06
2.17306e+06
2.13965e+06
2.10734e+06
2.07606e+06
2.04576e+06
2.01632e+06
1.98766e+06
1.95964e+06
1.93212e+06
1.90487e+06
1.87763e+06
1.84994e+06
1.82099e+06
1.78879e+06
2.31677e+06
2.27998e+06
2.24332e+06
2.20763e+06
2.17309e+06
2.13968e+06
2.10737e+06
2.0761e+06
2.0458e+06
2.01638e+06
1.98773e+06
1.95973e+06
1.93223e+06
1.90503e+06
1.87787e+06
1.85032e+06
1.82173e+06
1.79063e+06
2.31685e+06
2.28006e+06
2.24339e+06
2.2077e+06
2.17316e+06
2.13975e+06
2.10745e+06
2.07619e+06
2.0459e+06
2.0165e+06
1.98788e+06
1.95992e+06
1.93249e+06
1.90538e+06
1.87838e+06
1.85114e+06
1.82318e+06
1.79395e+06
2.31699e+06
2.2802e+06
2.24352e+06
2.20782e+06
2.17327e+06
2.13987e+06
2.10757e+06
2.07633e+06
2.04607e+06
2.0167e+06
1.98813e+06
1.96024e+06
1.9329e+06
1.90595e+06
1.87919e+06
1.85239e+06
1.8253e+06
1.79795e+06
2.31722e+06
2.28041e+06
2.2437e+06
2.20799e+06
2.17344e+06
2.14004e+06
2.10776e+06
2.07654e+06
2.04631e+06
2.01699e+06
1.98849e+06
1.9607e+06
1.9335e+06
1.90676e+06
1.88034e+06
1.85409e+06
1.82796e+06
1.80229e+06
2.31762e+06
2.28071e+06
2.24396e+06
2.20823e+06
2.17367e+06
2.14028e+06
2.10802e+06
2.07683e+06
2.04665e+06
2.01739e+06
1.98898e+06
1.96132e+06
1.93431e+06
1.90783e+06
1.88181e+06
1.85619e+06
1.83104e+06
1.80678e+06
2.31807e+06
2.2811e+06
2.2443e+06
2.20854e+06
2.17397e+06
2.14059e+06
2.10835e+06
2.07721e+06
2.04709e+06
2.01792e+06
1.98963e+06
1.96212e+06
1.93533e+06
1.90918e+06
1.88361e+06
1.85865e+06
1.83443e+06
1.81136e+06
2.3187e+06
2.2816e+06
2.24474e+06
2.20894e+06
2.17437e+06
2.14099e+06
2.10879e+06
2.07769e+06
2.04765e+06
2.01858e+06
1.99043e+06
1.96312e+06
1.9366e+06
1.9108e+06
1.88572e+06
1.86143e+06
1.83807e+06
1.81599e+06
2.31947e+06
2.28223e+06
2.24528e+06
2.20944e+06
2.17486e+06
2.1415e+06
2.10932e+06
2.07829e+06
2.04834e+06
2.0194e+06
1.99142e+06
1.96433e+06
1.9381e+06
1.91269e+06
1.88813e+06
1.86448e+06
1.8419e+06
1.82064e+06
2.32046e+06
2.283e+06
2.24595e+06
2.21006e+06
2.17546e+06
2.14211e+06
2.10998e+06
2.07902e+06
2.04918e+06
2.02039e+06
1.9926e+06
1.96576e+06
1.93985e+06
1.91485e+06
1.8908e+06
1.86776e+06
1.84587e+06
1.8253e+06
2.32156e+06
2.28392e+06
2.24677e+06
2.21081e+06
2.17618e+06
2.14285e+06
2.11077e+06
2.0799e+06
2.05018e+06
2.02155e+06
1.99397e+06
1.96741e+06
1.94184e+06
1.91726e+06
1.8937e+06
1.87124e+06
1.84996e+06
1.82998e+06
2.3226e+06
2.28492e+06
2.24765e+06
2.21163e+06
2.17697e+06
2.14366e+06
2.11163e+06
2.08085e+06
2.05125e+06
2.02279e+06
1.99543e+06
1.96913e+06
1.94387e+06
1.91968e+06
1.89656e+06
1.87457e+06
1.85378e+06
1.83426e+06
2.32393e+06
2.28607e+06
2.24866e+06
2.21256e+06
2.17787e+06
2.14457e+06
2.1126e+06
2.08191e+06
2.05245e+06
2.02416e+06
1.99702e+06
1.97099e+06
1.94606e+06
1.92223e+06
1.89952e+06
1.87798e+06
1.85763e+06
1.83851e+06
2.32575e+06
2.2876e+06
2.25e+06
2.21378e+06
2.17905e+06
2.14577e+06
2.11387e+06
2.08329e+06
2.05399e+06
2.02592e+06
1.99904e+06
1.97332e+06
1.94875e+06
1.92533e+06
1.90306e+06
1.88196e+06
1.86206e+06
1.84335e+06
2.32836e+06
2.28966e+06
2.25176e+06
2.21538e+06
2.18059e+06
2.14732e+06
2.1155e+06
2.08507e+06
2.05597e+06
2.02814e+06
2.00157e+06
1.9762e+06
1.95202e+06
1.92903e+06
1.90721e+06
1.88657e+06
1.86709e+06
1.84877e+06
2.33172e+06
2.29233e+06
2.25403e+06
2.21744e+06
2.18257e+06
2.14931e+06
2.11759e+06
2.08732e+06
2.05845e+06
2.03091e+06
2.00466e+06
1.97967e+06
1.95591e+06
1.93336e+06
1.91199e+06
1.89179e+06
1.87273e+06
1.85478e+06
2.33584e+06
2.29564e+06
2.25685e+06
2.22e+06
2.18502e+06
2.15179e+06
2.12018e+06
2.0901e+06
2.06148e+06
2.03425e+06
2.00836e+06
1.98377e+06
1.96043e+06
1.93831e+06
1.91737e+06
1.89758e+06
1.87891e+06
1.8613e+06
2.34061e+06
2.29947e+06
2.26012e+06
2.22299e+06
2.18793e+06
2.15473e+06
2.12326e+06
2.0934e+06
2.06506e+06
2.03815e+06
2.01263e+06
1.98843e+06
1.96549e+06
1.94378e+06
1.92324e+06
1.90383e+06
1.8855e+06
1.8682e+06
2.34578e+06
2.30327e+06
2.2634e+06
2.2261e+06
2.19104e+06
2.15796e+06
2.12668e+06
2.09707e+06
2.06903e+06
2.04246e+06
2.01729e+06
1.99346e+06
1.9709e+06
1.94956e+06
1.92938e+06
1.9103e+06
1.89227e+06
1.87524e+06
2.34545e+06
2.30429e+06
2.26499e+06
2.22802e+06
2.19322e+06
2.16037e+06
2.12933e+06
2.09996e+06
2.07217e+06
2.04586e+06
2.02096e+06
1.9974e+06
1.9751e+06
1.95401e+06
1.93406e+06
1.9152e+06
1.89736e+06
1.8805e+06
2.3448e+06
2.3044e+06
2.26564e+06
2.22903e+06
2.1945e+06
2.16188e+06
2.13103e+06
2.10185e+06
2.07424e+06
2.04811e+06
2.02339e+06
1.99999e+06
1.97786e+06
1.95692e+06
1.93711e+06
1.91838e+06
1.90067e+06
1.88391e+06
2.34371e+06
2.3041e+06
2.26585e+06
2.22959e+06
2.19531e+06
2.16289e+06
2.13222e+06
2.1032e+06
2.07573e+06
2.04973e+06
2.02513e+06
2.00186e+06
1.97983e+06
1.959e+06
1.93929e+06
1.92065e+06
1.90301e+06
1.88633e+06
2.3428e+06
2.30372e+06
2.26586e+06
2.22989e+06
2.19583e+06
2.16358e+06
2.13304e+06
2.10414e+06
2.07677e+06
2.05088e+06
2.02637e+06
2.00318e+06
1.98124e+06
1.96048e+06
1.94083e+06
1.92225e+06
1.90467e+06
1.88803e+06
2.34193e+06
2.30332e+06
2.26578e+06
2.23005e+06
2.19615e+06
2.16403e+06
2.1336e+06
2.10479e+06
2.0775e+06
2.05168e+06
2.02723e+06
2.0041e+06
1.98222e+06
1.96151e+06
1.94191e+06
1.92337e+06
1.90582e+06
1.88922e+06
2.34125e+06
2.30296e+06
2.26568e+06
2.23012e+06
2.19636e+06
2.16434e+06
2.13398e+06
2.10523e+06
2.078e+06
2.05223e+06
2.02783e+06
2.00474e+06
1.98289e+06
1.96222e+06
1.94265e+06
1.92414e+06
1.90662e+06
1.89003e+06
2.34066e+06
2.30267e+06
2.26559e+06
2.23016e+06
2.19649e+06
2.16453e+06
2.13423e+06
2.10553e+06
2.07834e+06
2.05259e+06
2.02823e+06
2.00516e+06
1.98334e+06
1.96269e+06
1.94315e+06
1.92465e+06
1.90715e+06
1.89058e+06
2.34008e+06
2.30244e+06
2.26551e+06
2.23017e+06
2.19657e+06
2.16466e+06
2.13439e+06
2.10571e+06
2.07855e+06
2.05283e+06
2.02848e+06
2.00544e+06
1.98363e+06
1.963e+06
1.94347e+06
1.92498e+06
1.90749e+06
1.89093e+06
2.33973e+06
2.30228e+06
2.26546e+06
2.23018e+06
2.19661e+06
2.16473e+06
2.13449e+06
2.10583e+06
2.07868e+06
2.05297e+06
2.02864e+06
2.0056e+06
1.98381e+06
1.96318e+06
1.94366e+06
1.92518e+06
1.90769e+06
1.89114e+06
2.33954e+06
2.30219e+06
2.26543e+06
2.23018e+06
2.19663e+06
2.16477e+06
2.13454e+06
2.10589e+06
2.07875e+06
2.05305e+06
2.02872e+06
2.00569e+06
1.9839e+06
1.96328e+06
1.94376e+06
1.92529e+06
1.90781e+06
1.89125e+06
2.33941e+06
2.30215e+06
2.26541e+06
2.23018e+06
2.19664e+06
2.16479e+06
2.13456e+06
2.10591e+06
2.07878e+06
2.05308e+06
2.02875e+06
2.00573e+06
1.98394e+06
1.96332e+06
1.9438e+06
1.92533e+06
1.90785e+06
1.8913e+06
1.51204e+06
1.51192e+06
1.51167e+06
1.51131e+06
1.51081e+06
1.51019e+06
1.50943e+06
1.50854e+06
1.50752e+06
1.50636e+06
1.50506e+06
1.50362e+06
1.50203e+06
1.50031e+06
1.49845e+06
1.49644e+06
1.49428e+06
1.49199e+06
1.48954e+06
1.48696e+06
1.48423e+06
1.48135e+06
1.47834e+06
1.47518e+06
1.47189e+06
1.46845e+06
1.46488e+06
1.46117e+06
1.45733e+06
1.45335e+06
1.44924e+06
1.445e+06
1.44063e+06
1.43614e+06
1.43152e+06
1.42678e+06
1.42192e+06
1.41694e+06
1.41185e+06
1.40664e+06
1.40132e+06
1.39588e+06
1.39033e+06
1.38468e+06
1.37892e+06
1.37305e+06
1.36708e+06
1.36101e+06
1.35484e+06
1.34857e+06
1.34221e+06
1.33575e+06
1.32921e+06
1.32257e+06
1.31585e+06
1.30905e+06
1.30217e+06
1.2952e+06
1.28816e+06
1.28104e+06
1.27385e+06
1.26658e+06
1.25924e+06
1.25183e+06
1.24434e+06
1.23678e+06
1.22914e+06
1.22144e+06
1.21366e+06
1.20581e+06
1.1979e+06
1.18992e+06
1.18187e+06
1.17376e+06
1.16559e+06
1.15736e+06
1.14908e+06
1.14075e+06
1.13237e+06
1.12395e+06
1.11548e+06
1.10697e+06
1.09842e+06
1.08982e+06
1.08117e+06
1.07249e+06
1.06376e+06
1.05499e+06
1.04618e+06
1.03732e+06
1.02842e+06
1.01947e+06
1.01048e+06
1.00145e+06
992365
983236
974068
964866
955633
946366
937065
927730
918364
908965
899538
890083
880599
871086
861554
852010
842455
832887
823305
813703
804077
794425
784749
775047
765320
755570
745801
736014
726213
716403
706588
696775
686965
677159
667354
657549
647738
637917
628085
618237
608374
598520
588695
578902
569139
559399
549670
539940
530200
520443
510669
500880
491085
481295
471527
461793
452105
442467
432880
423341
413849
404402
395003
385652
376345
367075
357839
348639
339480
330367
321306
312299
303349
294460
285641
276899
268240
259666
251179
242782
234478
226276
218188
210229
202428
194853
1.51258e+06
1.51246e+06
1.51222e+06
1.51185e+06
1.51135e+06
1.51072e+06
1.50996e+06
1.50907e+06
1.50804e+06
1.50687e+06
1.50556e+06
1.50412e+06
1.50253e+06
1.5008e+06
1.49892e+06
1.4969e+06
1.49474e+06
1.49243e+06
1.48998e+06
1.48738e+06
1.48464e+06
1.48175e+06
1.47873e+06
1.47556e+06
1.47225e+06
1.46881e+06
1.46522e+06
1.4615e+06
1.45765e+06
1.45366e+06
1.44954e+06
1.44529e+06
1.44091e+06
1.43641e+06
1.43178e+06
1.42703e+06
1.42216e+06
1.41717e+06
1.41207e+06
1.40685e+06
1.40152e+06
1.39607e+06
1.39052e+06
1.38486e+06
1.37909e+06
1.37321e+06
1.36724e+06
1.36116e+06
1.35498e+06
1.34871e+06
1.34234e+06
1.33588e+06
1.32933e+06
1.32269e+06
1.31596e+06
1.30916e+06
1.30227e+06
1.2953e+06
1.28825e+06
1.28113e+06
1.27394e+06
1.26667e+06
1.25933e+06
1.25191e+06
1.24442e+06
1.23685e+06
1.22922e+06
1.22151e+06
1.21373e+06
1.20587e+06
1.19795e+06
1.18997e+06
1.18192e+06
1.1738e+06
1.16563e+06
1.1574e+06
1.14912e+06
1.14079e+06
1.13241e+06
1.12399e+06
1.11552e+06
1.10701e+06
1.09845e+06
1.08985e+06
1.08121e+06
1.07252e+06
1.06379e+06
1.05502e+06
1.04621e+06
1.03735e+06
1.02845e+06
1.01951e+06
1.01051e+06
1.00148e+06
992390
983263
974099
964900
955667
946400
937097
927761
918392
908992
899561
890103
880615
871104
861576
852036
842484
832916
823333
813730
804101
794448
784770
775066
765337
755586
745814
736027
726226
716417
706604
696791
686982
677176
667371
657564
647751
637929
628095
618246
608389
598545
588727
578938
569175
559432
549700
539966
530222
520463
510687
500896
491100
481308
471538
461802
452111
442471
432883
423344
413852
404406
395009
385660
376353
367082
357846
348646
339486
330374
321312
312305
303353
294464
285643
276900
268240
259665
251178
242779
234474
226270
218179
210215
202403
194789
1.51368e+06
1.51356e+06
1.51331e+06
1.51293e+06
1.51243e+06
1.5118e+06
1.51103e+06
1.51013e+06
1.50909e+06
1.50791e+06
1.50659e+06
1.50512e+06
1.50352e+06
1.50177e+06
1.49988e+06
1.49784e+06
1.49566e+06
1.49333e+06
1.49085e+06
1.48823e+06
1.48547e+06
1.48256e+06
1.47951e+06
1.47631e+06
1.47298e+06
1.46951e+06
1.4659e+06
1.46216e+06
1.45828e+06
1.45427e+06
1.45013e+06
1.44586e+06
1.44146e+06
1.43694e+06
1.43229e+06
1.42752e+06
1.42263e+06
1.41763e+06
1.41251e+06
1.40727e+06
1.40192e+06
1.39646e+06
1.39089e+06
1.38521e+06
1.37943e+06
1.37354e+06
1.36755e+06
1.36146e+06
1.35527e+06
1.34898e+06
1.3426e+06
1.33613e+06
1.32956e+06
1.32291e+06
1.31618e+06
1.30936e+06
1.30246e+06
1.29549e+06
1.28843e+06
1.28131e+06
1.27411e+06
1.26684e+06
1.25949e+06
1.25207e+06
1.24457e+06
1.237e+06
1.22935e+06
1.22164e+06
1.21385e+06
1.20599e+06
1.19806e+06
1.19006e+06
1.182e+06
1.17388e+06
1.16571e+06
1.15748e+06
1.1492e+06
1.14087e+06
1.13249e+06
1.12407e+06
1.11559e+06
1.10708e+06
1.09852e+06
1.08992e+06
1.08127e+06
1.07258e+06
1.06385e+06
1.05508e+06
1.04627e+06
1.03741e+06
1.02851e+06
1.01956e+06
1.01057e+06
1.00153e+06
992443
983320
974159
964962
955729
946460
937156
927817
918444
909039
899603
890139
880651
871143
861620
852083
842531
832964
823379
813772
804141
794486
784804
775096
765365
755611
745839
736051
726250
716442
706630
696819
687010
677203
667398
657591
647776
637952
628115
618269
608424
598594
588784
578997
569234
559487
549749
540010
530262
520500
510721
500928
491129
481334
471559
461819
452124
442481
432890
423350
413858
404414
395020
385672
376366
367095
357858
348658
339499
330386
321324
312315
303362
294471
285649
276903
268241
259664
251174
242773
234465
226258
218161
210188
202358
194696
1.51533e+06
1.51521e+06
1.51495e+06
1.51457e+06
1.51406e+06
1.51342e+06
1.51264e+06
1.51172e+06
1.51066e+06
1.50946e+06
1.50812e+06
1.50664e+06
1.50501e+06
1.50323e+06
1.50131e+06
1.49924e+06
1.49703e+06
1.49467e+06
1.49216e+06
1.4895e+06
1.4867e+06
1.48376e+06
1.48067e+06
1.47745e+06
1.47408e+06
1.47057e+06
1.46693e+06
1.46315e+06
1.45923e+06
1.45519e+06
1.45101e+06
1.44671e+06
1.44228e+06
1.43773e+06
1.43305e+06
1.42825e+06
1.42334e+06
1.4183e+06
1.41316e+06
1.4079e+06
1.40253e+06
1.39704e+06
1.39145e+06
1.38575e+06
1.37994e+06
1.37403e+06
1.36802e+06
1.3619e+06
1.35569e+06
1.34939e+06
1.34298e+06
1.33649e+06
1.32991e+06
1.32324e+06
1.31649e+06
1.30966e+06
1.30275e+06
1.29576e+06
1.2887e+06
1.28157e+06
1.27436e+06
1.26708e+06
1.25972e+06
1.25229e+06
1.24478e+06
1.2372e+06
1.22955e+06
1.22182e+06
1.21402e+06
1.20614e+06
1.1982e+06
1.1902e+06
1.18213e+06
1.17401e+06
1.16583e+06
1.1576e+06
1.14932e+06
1.14098e+06
1.1326e+06
1.12417e+06
1.1157e+06
1.10718e+06
1.09862e+06
1.09001e+06
1.08136e+06
1.07267e+06
1.06394e+06
1.05517e+06
1.04635e+06
1.0375e+06
1.02859e+06
1.01964e+06
1.01065e+06
1.0016e+06
992523
983403
974245
965048
955814
946542
937234
927891
918514
909102
899660
890193
880705
871200
861679
852143
842591
833022
823434
813824
804190
794531
784846
775135
765401
755645
745871
736083
726283
716475
706665
696854
687046
677241
667436
657628
647812
637985
628149
618311
608479
598659
588856
579073
569309
559558
549815
540071
530318
520551
510769
500973
491170
481372
471591
461844
452143
442495
432901
423359
413867
404425
395034
385688
376382
367111
357874
348674
339515
330402
321339
312329
303375
294482
285656
276907
268242
259662
251169
242765
234454
226241
218137
210152
202300
194589
1.51755e+06
1.51742e+06
1.51716e+06
1.51678e+06
1.51625e+06
1.51559e+06
1.51479e+06
1.51386e+06
1.51277e+06
1.51155e+06
1.51018e+06
1.50866e+06
1.507e+06
1.50519e+06
1.50323e+06
1.50112e+06
1.49886e+06
1.49645e+06
1.4939e+06
1.4912e+06
1.48835e+06
1.48536e+06
1.48223e+06
1.47895e+06
1.47554e+06
1.47198e+06
1.46829e+06
1.46446e+06
1.4605e+06
1.45641e+06
1.45219e+06
1.44784e+06
1.44337e+06
1.43878e+06
1.43406e+06
1.42922e+06
1.42427e+06
1.4192e+06
1.41402e+06
1.40873e+06
1.40332e+06
1.39781e+06
1.39218e+06
1.38645e+06
1.38061e+06
1.37467e+06
1.36863e+06
1.36249e+06
1.35625e+06
1.34991e+06
1.34348e+06
1.33697e+06
1.33036e+06
1.32367e+06
1.3169e+06
1.31005e+06
1.30313e+06
1.29613e+06
1.28905e+06
1.2819e+06
1.27468e+06
1.26738e+06
1.26001e+06
1.25257e+06
1.24505e+06
1.23746e+06
1.22979e+06
1.22205e+06
1.21423e+06
1.20635e+06
1.19839e+06
1.19038e+06
1.18231e+06
1.17418e+06
1.166e+06
1.15776e+06
1.14947e+06
1.14113e+06
1.13274e+06
1.12431e+06
1.11583e+06
1.10731e+06
1.09874e+06
1.09013e+06
1.08147e+06
1.07278e+06
1.06404e+06
1.05527e+06
1.04645e+06
1.0376e+06
1.02869e+06
1.01974e+06
1.01074e+06
1.0017e+06
992627
983508
974350
965153
955916
946641
937328
927980
918596
909178
899732
890263
880776
871272
861751
852214
842660
833088
823497
813883
804246
794583
784894
775180
765443
755686
745911
736121
726321
716514
706705
696897
687090
677287
667483
657675
647859
638031
628199
618370
608548
598735
588939
579159
569394
559641
549893
540143
530385
520614
510828
501029
491222
481419
471632
461878
452169
442515
432916
423371
413880
404440
395051
385707
376401
367130
357893
348693
339534
330421
321356
312345
303389
294494
285666
276913
268243
259659
251163
242755
234439
226220
218106
210108
202232
194479
1.52035e+06
1.52022e+06
1.51995e+06
1.51955e+06
1.51901e+06
1.51833e+06
1.51751e+06
1.51654e+06
1.51543e+06
1.51417e+06
1.51276e+06
1.5112e+06
1.5095e+06
1.50764e+06
1.50563e+06
1.50346e+06
1.50115e+06
1.49869e+06
1.49608e+06
1.49332e+06
1.49042e+06
1.48736e+06
1.48417e+06
1.48083e+06
1.47736e+06
1.47374e+06
1.46999e+06
1.46611e+06
1.46209e+06
1.45794e+06
1.45366e+06
1.44926e+06
1.44473e+06
1.44008e+06
1.43532e+06
1.43043e+06
1.42543e+06
1.42032e+06
1.4151e+06
1.40976e+06
1.40431e+06
1.39876e+06
1.39309e+06
1.38732e+06
1.38144e+06
1.37547e+06
1.36939e+06
1.36321e+06
1.35693e+06
1.35056e+06
1.3441e+06
1.33755e+06
1.33092e+06
1.32421e+06
1.31741e+06
1.31054e+06
1.30359e+06
1.29657e+06
1.28948e+06
1.28231e+06
1.27507e+06
1.26775e+06
1.26037e+06
1.25291e+06
1.24537e+06
1.23776e+06
1.23008e+06
1.22232e+06
1.2145e+06
1.2066e+06
1.19863e+06
1.19061e+06
1.18253e+06
1.17439e+06
1.1662e+06
1.15795e+06
1.14966e+06
1.14131e+06
1.13291e+06
1.12447e+06
1.11598e+06
1.10745e+06
1.09888e+06
1.09026e+06
1.0816e+06
1.0729e+06
1.06417e+06
1.05539e+06
1.04657e+06
1.03771e+06
1.02881e+06
1.01986e+06
1.01086e+06
1.00182e+06
992749
983631
974472
965272
956031
946751
937434
928080
918689
909266
899818
890350
880862
871357
861834
852294
842737
833161
823565
813947
804305
794638
784946
775230
765491
755732
745955
736165
726365
716558
706751
696944
687141
677339
667538
657731
647915
638090
628265
618443
608627
598822
589031
579253
569488
559732
549979
540224
530461
520685
510895
501092
491282
481474
471681
461919
452202
442540
432936
423388
413897
404459
395072
385728
376422
367151
357913
348713
339554
330440
321375
312362
303405
294508
285676
276919
268245
259657
251156
242743
234421
226195
218072
210059
202160
194368
1.52376e+06
1.52361e+06
1.52334e+06
1.52292e+06
1.52236e+06
1.52165e+06
1.5208e+06
1.51979e+06
1.51864e+06
1.51734e+06
1.51588e+06
1.51427e+06
1.51251e+06
1.51059e+06
1.50852e+06
1.50629e+06
1.50391e+06
1.50138e+06
1.4987e+06
1.49587e+06
1.49289e+06
1.48977e+06
1.4865e+06
1.48309e+06
1.47954e+06
1.47586e+06
1.47203e+06
1.46807e+06
1.46399e+06
1.45977e+06
1.45542e+06
1.45095e+06
1.44636e+06
1.44165e+06
1.43682e+06
1.43188e+06
1.42682e+06
1.42166e+06
1.41638e+06
1.41099e+06
1.40549e+06
1.39989e+06
1.39418e+06
1.38836e+06
1.38244e+06
1.37642e+06
1.37029e+06
1.36407e+06
1.35775e+06
1.35134e+06
1.34484e+06
1.33825e+06
1.33159e+06
1.32484e+06
1.31801e+06
1.31111e+06
1.30414e+06
1.29709e+06
1.28998e+06
1.28279e+06
1.27553e+06
1.26819e+06
1.26079e+06
1.2533e+06
1.24575e+06
1.23812e+06
1.23042e+06
1.22265e+06
1.21481e+06
1.2069e+06
1.19893e+06
1.19089e+06
1.1828e+06
1.17465e+06
1.16645e+06
1.15819e+06
1.14988e+06
1.14152e+06
1.13311e+06
1.12466e+06
1.11616e+06
1.10762e+06
1.09904e+06
1.09041e+06
1.08175e+06
1.07304e+06
1.0643e+06
1.05553e+06
1.04671e+06
1.03785e+06
1.02894e+06
1.01999e+06
1.01099e+06
1.00196e+06
992885
983766
974604
965400
956155
946870
937548
928189
918794
909368
899918
890449
880960
871452
861926
852382
842819
833238
823636
814014
804368
794697
785002
775283
765542
755781
746003
736212
726411
716606
706800
696996
687195
677397
667597
657793
647979
638159
628341
618525
608715
598915
589127
579351
569585
559826
550069
540309
530540
520760
510967
501161
491347
481534
471735
461965
452240
442570
432960
423410
413918
404481
395094
385751
376445
367172
357935
348734
339575
330461
321395
312380
303421
294522
285687
276926
268247
259654
251148
242731
234403
226169
218035
210007
202085
194261
1.52778e+06
1.52763e+06
1.52734e+06
1.5269e+06
1.52631e+06
1.52557e+06
1.52467e+06
1.52363e+06
1.52242e+06
1.52106e+06
1.51955e+06
1.51787e+06
1.51604e+06
1.51405e+06
1.5119e+06
1.5096e+06
1.50714e+06
1.50453e+06
1.50176e+06
1.49885e+06
1.49579e+06
1.49258e+06
1.48922e+06
1.48572e+06
1.48209e+06
1.47832e+06
1.47441e+06
1.47037e+06
1.4662e+06
1.4619e+06
1.45747e+06
1.45292e+06
1.44826e+06
1.44347e+06
1.43857e+06
1.43356e+06
1.42844e+06
1.42321e+06
1.41787e+06
1.41242e+06
1.40687e+06
1.40121e+06
1.39544e+06
1.38957e+06
1.3836e+06
1.37752e+06
1.37134e+06
1.36507e+06
1.3587e+06
1.35224e+06
1.34569e+06
1.33906e+06
1.33236e+06
1.32557e+06
1.31871e+06
1.31178e+06
1.30477e+06
1.2977e+06
1.29055e+06
1.28333e+06
1.27605e+06
1.26869e+06
1.26126e+06
1.25376e+06
1.24618e+06
1.23854e+06
1.23082e+06
1.22303e+06
1.21517e+06
1.20725e+06
1.19927e+06
1.19122e+06
1.18311e+06
1.17495e+06
1.16673e+06
1.15846e+06
1.15013e+06
1.14176e+06
1.13334e+06
1.12487e+06
1.11636e+06
1.10781e+06
1.09922e+06
1.09058e+06
1.08191e+06
1.0732e+06
1.06445e+06
1.05567e+06
1.04685e+06
1.03799e+06
1.02908e+06
1.02013e+06
1.01114e+06
1.0021e+06
993028
983907
974742
965533
956284
946995
937669
928306
918908
909479
900028
890556
881064
871553
862022
852473
842905
833317
823710
814083
804433
794759
785061
775339
765596
755833
746054
736261
726461
716657
706853
697051
687253
677458
667661
657859
648048
638234
628423
618612
608806
599011
589225
579449
569682
559920
550159
540394
530621
520837
511041
501232
491415
481598
471793
462015
452282
442605
432989
423435
413942
404505
395119
385775
376468
367195
357956
348756
339597
330483
321415
312398
303438
294536
285699
276935
268250
259652
251141
242718
234383
226141
217997
209954
202010
194157
1.53246e+06
1.53229e+06
1.53198e+06
1.53151e+06
1.53089e+06
1.53011e+06
1.52916e+06
1.52806e+06
1.5268e+06
1.52537e+06
1.52378e+06
1.52203e+06
1.52012e+06
1.51804e+06
1.5158e+06
1.51341e+06
1.51085e+06
1.50814e+06
1.50528e+06
1.50226e+06
1.4991e+06
1.49578e+06
1.49233e+06
1.48873e+06
1.485e+06
1.48112e+06
1.47712e+06
1.47298e+06
1.46871e+06
1.46432e+06
1.4598e+06
1.45517e+06
1.45041e+06
1.44555e+06
1.44057e+06
1.43548e+06
1.43028e+06
1.42498e+06
1.41957e+06
1.41405e+06
1.40843e+06
1.40271e+06
1.39688e+06
1.39095e+06
1.38491e+06
1.37878e+06
1.37254e+06
1.36621e+06
1.35978e+06
1.35326e+06
1.34666e+06
1.33999e+06
1.33323e+06
1.3264e+06
1.3195e+06
1.31252e+06
1.30548e+06
1.29837e+06
1.2912e+06
1.28395e+06
1.27664e+06
1.26925e+06
1.2618e+06
1.25427e+06
1.24667e+06
1.239e+06
1.23127e+06
1.22346e+06
1.21559e+06
1.20765e+06
1.19965e+06
1.19159e+06
1.18347e+06
1.17528e+06
1.16705e+06
1.15876e+06
1.15042e+06
1.14203e+06
1.13359e+06
1.12511e+06
1.11659e+06
1.10802e+06
1.09941e+06
1.09077e+06
1.08209e+06
1.07337e+06
1.06462e+06
1.05583e+06
1.04701e+06
1.03814e+06
1.02923e+06
1.02028e+06
1.01129e+06
1.00225e+06
993174
984050
974881
965668
956415
947123
937793
928427
919027
909596
900143
890669
881173
871657
862122
852567
842993
833400
823788
814156
804502
794825
785124
775399
765653
755888
746107
736314
726514
716710
706908
697109
687314
677521
667726
657927
648121
638314
628508
618701
608899
599105
589320
579543
569775
560010
550245
540476
530700
520913
511114
501303
491483
481661
471851
462067
452327
442643
433021
423463
413968
404531
395144
385800
376492
367218
357979
348778
339620
330505
321436
312417
303454
294551
285712
276943
268255
259651
251135
242705
234364
226113
217958
209900
201936
194057
1.53781e+06
1.53763e+06
1.5373e+06
1.5368e+06
1.53613e+06
1.5353e+06
1.5343e+06
1.53313e+06
1.53179e+06
1.53028e+06
1.5286e+06
1.52676e+06
1.52474e+06
1.52257e+06
1.52022e+06
1.51772e+06
1.51505e+06
1.51222e+06
1.50924e+06
1.50611e+06
1.50283e+06
1.4994e+06
1.49583e+06
1.49211e+06
1.48826e+06
1.48428e+06
1.48016e+06
1.47591e+06
1.47153e+06
1.46703e+06
1.46241e+06
1.45768e+06
1.45283e+06
1.44786e+06
1.44279e+06
1.43762e+06
1.43234e+06
1.42695e+06
1.42146e+06
1.41587e+06
1.41018e+06
1.40438e+06
1.39848e+06
1.39248e+06
1.38638e+06
1.38017e+06
1.37387e+06
1.36747e+06
1.36098e+06
1.35441e+06
1.34775e+06
1.34101e+06
1.3342e+06
1.32732e+06
1.32037e+06
1.31336e+06
1.30627e+06
1.29913e+06
1.29191e+06
1.28463e+06
1.27728e+06
1.26987e+06
1.26238e+06
1.25483e+06
1.24721e+06
1.23952e+06
1.23176e+06
1.22394e+06
1.21605e+06
1.2081e+06
1.20008e+06
1.192e+06
1.18385e+06
1.17565e+06
1.1674e+06
1.1591e+06
1.15074e+06
1.14233e+06
1.13388e+06
1.12537e+06
1.11683e+06
1.10825e+06
1.09963e+06
1.09097e+06
1.08227e+06
1.07355e+06
1.06479e+06
1.05599e+06
1.04716e+06
1.03829e+06
1.02938e+06
1.02043e+06
1.01144e+06
1.0024e+06
993318
984190
975017
965801
956544
947249
937917
928550
919148
909717
900262
890784
881285
871764
862224
852665
843086
833488
823870
814233
804575
794894
785190
775462
765713
755946
746164
736370
726570
716768
706967
697170
687376
677584
667792
657996
648195
638394
628593
618789
608989
599195
589409
579630
569859
560092
550324
540552
530774
520985
511185
501372
491548
481722
471907
462118
452372
442682
433055
423493
413996
404558
395170
385824
376515
367240
358000
348799
339641
330527
321457
312436
303471
294566
285724
276953
268260
259651
251129
242694
234345
226085
217919
209847
201863
193962
1.54389e+06
1.5437e+06
1.54333e+06
1.54279e+06
1.54208e+06
1.54118e+06
1.54011e+06
1.53886e+06
1.53743e+06
1.53582e+06
1.53404e+06
1.53208e+06
1.52995e+06
1.52765e+06
1.52518e+06
1.52255e+06
1.51975e+06
1.51679e+06
1.51368e+06
1.51041e+06
1.50699e+06
1.50343e+06
1.49972e+06
1.49587e+06
1.49189e+06
1.48777e+06
1.48353e+06
1.47915e+06
1.47465e+06
1.47004e+06
1.4653e+06
1.46045e+06
1.45549e+06
1.45042e+06
1.44525e+06
1.43998e+06
1.4346e+06
1.42913e+06
1.42355e+06
1.41787e+06
1.41209e+06
1.40621e+06
1.40024e+06
1.39416e+06
1.38798e+06
1.3817e+06
1.37532e+06
1.36886e+06
1.3623e+06
1.35566e+06
1.34894e+06
1.34214e+06
1.33527e+06
1.32834e+06
1.32134e+06
1.31427e+06
1.30714e+06
1.29995e+06
1.29269e+06
1.28537e+06
1.27799e+06
1.27054e+06
1.26302e+06
1.25544e+06
1.24779e+06
1.24008e+06
1.2323e+06
1.22446e+06
1.21655e+06
1.20857e+06
1.20053e+06
1.19243e+06
1.18427e+06
1.17605e+06
1.16778e+06
1.15946e+06
1.15108e+06
1.14266e+06
1.13418e+06
1.12566e+06
1.1171e+06
1.10849e+06
1.09986e+06
1.09118e+06
1.08247e+06
1.07374e+06
1.06497e+06
1.05616e+06
1.04733e+06
1.03845e+06
1.02953e+06
1.02058e+06
1.01158e+06
1.00254e+06
993456
984324
975148
965928
956669
947371
938037
928669
919267
909837
900381
890900
881397
871873
862329
852765
843182
833579
823956
814313
804651
794966
785258
775528
765777
756008
746226
736432
726633
716830
707030
697233
687439
677647
667856
658063
648267
638472
628674
618872
609072
599276
589487
579707
569933
560163
550393
540620
530840
521051
511250
501435
491608
481778
471960
462166
452415
442720
433089
423524
414024
404584
395195
385848
376537
367261
358021
348819
339661
330546
321475
312453
303487
294580
285736
276962
268266
259653
251125
242683
234327
226059
217881
209794
201793
193872
1.55076e+06
1.55054e+06
1.55014e+06
1.54955e+06
1.54877e+06
1.5478e+06
1.54665e+06
1.5453e+06
1.54376e+06
1.54204e+06
1.54013e+06
1.53804e+06
1.53577e+06
1.53332e+06
1.53071e+06
1.52792e+06
1.52497e+06
1.52185e+06
1.51858e+06
1.51516e+06
1.51159e+06
1.50787e+06
1.50401e+06
1.50001e+06
1.49588e+06
1.49161e+06
1.48722e+06
1.48271e+06
1.47807e+06
1.47332e+06
1.46846e+06
1.46348e+06
1.4584e+06
1.45322e+06
1.44793e+06
1.44254e+06
1.43706e+06
1.43148e+06
1.4258e+06
1.42002e+06
1.41415e+06
1.40818e+06
1.40212e+06
1.39595e+06
1.38969e+06
1.38333e+06
1.37688e+06
1.37034e+06
1.36372e+06
1.35701e+06
1.35022e+06
1.34336e+06
1.33643e+06
1.32944e+06
1.32238e+06
1.31526e+06
1.30807e+06
1.30083e+06
1.29353e+06
1.28616e+06
1.27874e+06
1.27125e+06
1.2637e+06
1.25609e+06
1.24841e+06
1.24067e+06
1.23287e+06
1.225e+06
1.21707e+06
1.20907e+06
1.20101e+06
1.19289e+06
1.18471e+06
1.17648e+06
1.16819e+06
1.15985e+06
1.15145e+06
1.14301e+06
1.13451e+06
1.12596e+06
1.11738e+06
1.10876e+06
1.1001e+06
1.09141e+06
1.08269e+06
1.07393e+06
1.06515e+06
1.05634e+06
1.04749e+06
1.03861e+06
1.02969e+06
1.02073e+06
1.01172e+06
1.00268e+06
993586
984450
975270
966047
956784
947484
938150
928782
919382
909954
900498
891016
881510
871982
862435
852868
843282
833674
824046
814398
804730
795040
785328
775595
765843
756075
746293
736501
726701
716898
707096
697297
687501
677708
667917
658126
648336
638545
628749
618947
609144
599346
589554
579770
569993
560221
550450
540676
530896
521108
511306
501490
491660
481827
472005
462209
452455
442757
433122
423554
414052
404610
395220
385871
376559
367281
358040
348838
339679
330563
321492
312469
303501
294593
285748
276972
268272
259655
251122
242674
234310
226033
217843
209743
201726
193786
1.55847e+06
1.55823e+06
1.55778e+06
1.55714e+06
1.55628e+06
1.55522e+06
1.55396e+06
1.5525e+06
1.55083e+06
1.54897e+06
1.54691e+06
1.54466e+06
1.54222e+06
1.53961e+06
1.53681e+06
1.53385e+06
1.53072e+06
1.52742e+06
1.52397e+06
1.52037e+06
1.51662e+06
1.51272e+06
1.50869e+06
1.50452e+06
1.50022e+06
1.49579e+06
1.49124e+06
1.48657e+06
1.48178e+06
1.47688e+06
1.47187e+06
1.46675e+06
1.46153e+06
1.45621e+06
1.4508e+06
1.44529e+06
1.43968e+06
1.43398e+06
1.4282e+06
1.42231e+06
1.41634e+06
1.41027e+06
1.40411e+06
1.39786e+06
1.39151e+06
1.38507e+06
1.37854e+06
1.37192e+06
1.36522e+06
1.35844e+06
1.35158e+06
1.34466e+06
1.33767e+06
1.33061e+06
1.32349e+06
1.31631e+06
1.30907e+06
1.30178e+06
1.29442e+06
1.28701e+06
1.27954e+06
1.27201e+06
1.26442e+06
1.25678e+06
1.24907e+06
1.2413e+06
1.23346e+06
1.22556e+06
1.21761e+06
1.20958e+06
1.2015e+06
1.19337e+06
1.18517e+06
1.17692e+06
1.16862e+06
1.16026e+06
1.15185e+06
1.14338e+06
1.13486e+06
1.12629e+06
1.11768e+06
1.10903e+06
1.10035e+06
1.09164e+06
1.08291e+06
1.07414e+06
1.06534e+06
1.05651e+06
1.04766e+06
1.03877e+06
1.02984e+06
1.02087e+06
1.01186e+06
1.0028e+06
993707
984566
975381
966154
956888
947587
938252
928886
919490
910065
900611
891128
881621
872091
862542
852973
843384
833772
824139
814484
804810
795115
785398
775663
765910
756144
746366
736575
726774
716969
707163
697361
687561
677765
667973
658184
648397
638609
628814
619010
609205
599402
589606
579818
570038
560264
550492
540719
530941
521153
511352
501534
491702
481867
472044
462246
452492
442792
433154
423584
414079
404635
395243
385892
376579
367300
358057
348854
339694
330578
321506
312482
303514
294605
285759
276981
268279
259658
251120
242666
234295
226008
217807
209693
201662
193706
1.56712e+06
1.56684e+06
1.56635e+06
1.56563e+06
1.56468e+06
1.56352e+06
1.56212e+06
1.56052e+06
1.55869e+06
1.55666e+06
1.55441e+06
1.55197e+06
1.54934e+06
1.54652e+06
1.54352e+06
1.54034e+06
1.537e+06
1.53349e+06
1.52984e+06
1.52603e+06
1.52208e+06
1.51798e+06
1.51375e+06
1.50939e+06
1.5049e+06
1.50029e+06
1.49555e+06
1.4907e+06
1.48574e+06
1.48067e+06
1.4755e+06
1.47023e+06
1.46485e+06
1.45939e+06
1.45383e+06
1.44818e+06
1.44245e+06
1.43663e+06
1.43072e+06
1.42472e+06
1.41863e+06
1.41246e+06
1.4062e+06
1.39985e+06