/*--------------------------------*- C++ -*----------------------------------*\
  =========                 |
  \\      /  F ield         | OpenFOAM: The Open Source CFD Toolbox
   \\    /   O peration     | Website:  https://openfoam.org
    \\  /    A nd           | Version:  6
     \\/     M anipulation  |
\*---------------------------------------------------------------------------*/
FoamFile
{
    version     2.0;
    format      ascii;
    class       volScalarField;
    location    "0.2";
    object      s;
}
// * * * * * * * * * * * * * * * * * * * * * * * * * * * * * * * * * * * * * //

dimensions      [0 0 0 0 0 0 0];

internalField   nonuniform List<scalar> 
12225
(
1
1
1
1
1
1
1
1
1
1
1
1
1
1
1
1
1
1
1
1
1
1
1
1
1
1
1
1
1
1
1
1
1
1
1
1
1
1
1
1
1
1
1
1
1
1
1
1
1
1
1
1
1
1
1
1
1
1
1
1
1
1
1
1
1
1
1
1
1
1
1
1
1
1
1
1
1
1
1
1
1
1
1
1
1
1
1
1
1
1
1
1
1
1
1
1
1
1
1
1
1
1
1
1
1
1
1
1
1
1
1
1
1
1
1
1
1
1
1
1
1
1
1
1
1
1
1
1
1
1
1
1
1
1
1
1
1
1
1
1
1
1
1
1
1
1
1
1
1
1
1
1
1
1
1
1
1
1
1
1
1
1
1
1
1
1
1
1
1
1
1
1
1
1
1
1
1
1
1
1
1
1
1
1
1
1
1
1
1
1
1
1
1
1
1
1
1
1
1
1
1
1
1
1
1
1
1
1
1
1
1
1
1
1
1
1
1
1
1
1
1
1
1
1
1
1
1
1
1
1
1
1
1
1
1
1
1
1
1
1
1
1
1
1
1
1
1
1
1
1
1
1
1
1
1
1
1
1
1
1
1
1
1
1
1
1
1
1
1
1
1
1
1
1
1
1
1
1
1
1
1
1
1
1
1
1
1
1
1
1
1
1
1
1
1
1
1
1
1
1
1
1
1
1
1
1
1
1
1
1
1
1
1
1
1
1
1
1
1
1
1
1
1
1
1
1
1
1
1
1
1
1
1
1
1
1
1
1
1
1
1
1
1
1
1
1
1
1
1
1
1
1
1
1
1
1
1
1
1
1
1
1
1
1
1
1
1
1
1
1
1
1
1
1
1
1
1
1
1
1
1
1
1
1
1
1
1
1
1
1
1
1
1
1
1
1
1
1
1
1
1
1
1
1
1
1
1
1
1
1
1
1
1
1
1
1
1
1
1
1
1
1
1
1
1
1
1
1
1
1
1
1
1
1
1
1
1
1
1
1
1
1
1
1
1
1
1
1
1
1
1
1
1
1
1
1
1
1
1
1
1
1
1
1
1
1
1
1
1
1
1
1
1
1
1
1
1
1
1
1
1
1
1
1
1
1
1
1
1
1
1
1
1
1
1
1
1
1
1
1
1
1
1
1
1
1
1
1
1
1
1
1
1
1
1
1
1
1
1
1
1
1
1
1
1
1
1
1
1
1
1
1
1
1
1
1
1
1
1
1
0.826178
0.827521
0.830429
0.828159
0.830446
0.860976
0.87642
0.885929
0.897489
0.904938
0.912381
0.919183
0.925991
0.932506
0.93883
0.94449
0.948222
0.952317
0.955697
0.958864
0.961601
0.963804
0.965691
0.967334
0.968752
0.969971
0.971038
0.971955
0.972655
0.973009
0.97303
0.972695
0.971413
0.969252
0.967034
0.965485
0.964975
0.965015
0.965503
0.966044
0.96605
0.965471
0.963363
0.960376
0.953033
0.937719
0.928006
0.925812
0.928646
0.941224
0.946939
0.956384
0.960333
0.966068
0.975644
0.978734
0.979151
0.979358
0.97966
0.979993
0.980244
0.980408
0.980473
0.980508
0.980545
0.980578
0.980623
0.980682
0.980716
0.980757
0.980804
0.980844
0.980897
0.980955
0.980976
0.98096
0.980846
0.980739
0.98056
0.980374
0.98008
0.979826
0.979482
0.979081
0.978615
0.978112
0.977522
0.976859
0.976072
0.975237
0.974282
0.973171
0.971964
0.970607
0.969138
0.967469
0.965447
0.962948
0.959778
0.955955
0.951863
0.94827
0.945897
0.9448
0.944386
0.944211
0.944083
0.943904
0.943527
0.943
0.942768
0.942771
0.942783
0.94264
0.942506
0.942523
0.942445
0.941959
0.941016
0.940653
0.940726
0.943022
0.957121
0.966832
0.96815
0.971075
0.979053
0.985942
0.989513
0.990929
0.991368
0.991472
0.991592
0.992116
0.993372
0.994051
0.9943
0.994455
0.994596
0.994726
0.994839
0.994941
0.995027
0.995098
0.995168
0.995214
0.99525
0.995285
0.9953
0.995305
0.995306
0.995293
0.995257
0.995224
0.995182
0.995151
0.995125
0.995081
0.995038
0.99496
0.994837
0.994652
0.994385
0.994023
0.993555
0.992963
0.992209
0.991159
0.989698
0.988205
0.987438
0.987289
0.987348
0.987582
0.987723
0.987769
0.987772
0.987733
0.987574
0.987423
0.830005
0.842311
0.860174
0.857049
0.857116
0.873219
0.881707
0.894809
0.90366
0.909016
0.916532
0.921139
0.924074
0.925348
0.927958
0.929683
0.932237
0.936335
0.941033
0.946785
0.952657
0.958073
0.962062
0.964866
0.967071
0.969161
0.971472
0.974201
0.977423
0.980877
0.983991
0.986247
0.987557
0.988165
0.988389
0.988462
0.988597
0.989062
0.989741
0.990036
0.990032
0.989809
0.989021
0.986382
0.979664
0.966236
0.950131
0.935693
0.932689
0.933966
0.936011
0.947574
0.965634
0.975532
0.979255
0.981046
0.982535
0.983514
0.984439
0.985064
0.985458
0.985813
0.985996
0.986234
0.986385
0.986574
0.98672
0.986884
0.986978
0.987088
0.987158
0.987199
0.987219
0.987215
0.987216
0.98724
0.98728
0.987321
0.987369
0.987405
0.987432
0.987442
0.987447
0.987444
0.98742
0.98739
0.987359
0.987304
0.987227
0.987166
0.987093
0.987004
0.98692
0.986817
0.986766
0.986698
0.986629
0.986526
0.986316
0.985796
0.984448
0.98136
0.976774
0.97183
0.96788
0.965389
0.963557
0.961505
0.959604
0.958692
0.958579
0.958967
0.959878
0.960184
0.9602
0.9602
0.960071
0.959374
0.958298
0.956369
0.950159
0.947171
0.949073
0.950257
0.950544
0.95252
0.961935
0.977442
0.986539
0.990281
0.99133
0.99163
0.992061
0.993064
0.994254
0.994979
0.995446
0.995782
0.996013
0.996185
0.996312
0.996398
0.996466
0.996495
0.996505
0.996489
0.9964
0.996274
0.996107
0.995894
0.995619
0.995361
0.99509
0.994886
0.994771
0.994733
0.994841
0.995046
0.995337
0.995677
0.996002
0.996327
0.996647
0.996967
0.997284
0.997564
0.99776
0.99782
0.99771
0.996859
0.993547
0.989919
0.988112
0.98738
0.987181
0.987212
0.987492
0.987671
0.987695
0.987683
0.835208
0.86401
0.869314
0.86851
0.871094
0.880905
0.886258
0.894283
0.898979
0.900016
0.899351
0.895966
0.892852
0.89141
0.890643
0.8903
0.890541
0.891365
0.892921
0.895585
0.899863
0.906547
0.914392
0.921198
0.92654
0.930877
0.935006
0.93995
0.946625
0.955507
0.966217
0.976341
0.983275
0.987624
0.990151
0.991567
0.992312
0.992613
0.99267
0.992642
0.992442
0.991828
0.991247
0.990279
0.987862
0.980476
0.961845
0.947996
0.945062
0.946126
0.95004
0.966929
0.978482
0.982793
0.984728
0.985987
0.986643
0.986941
0.987028
0.98697
0.986836
0.986673
0.986474
0.986309
0.98603
0.985727
0.98562
0.985589
0.985583
0.98562
0.985792
0.986116
0.986467
0.986812
0.987186
0.987523
0.98779
0.987968
0.988169
0.988271
0.988391
0.988435
0.988455
0.988457
0.988416
0.988344
0.988236
0.988091
0.987935
0.987788
0.987617
0.987424
0.987194
0.986942
0.986751
0.986507
0.986372
0.986331
0.986401
0.986596
0.986749
0.986692
0.986346
0.986412
0.986673
0.986855
0.986671
0.985489
0.981195
0.976129
0.973127
0.971898
0.971731
0.971624
0.971242
0.971069
0.971152
0.971099
0.97045
0.968841
0.965588
0.956887
0.952057
0.950875
0.950913
0.952774
0.965175
0.982696
0.989434
0.991232
0.991875
0.992706
0.993965
0.995211
0.995882
0.99623
0.996391
0.99644
0.996441
0.996396
0.996319
0.996204
0.995966
0.995541
0.995073
0.994523
0.993913
0.993226
0.992517
0.991799
0.991137
0.990626
0.990269
0.990091
0.990001
0.989972
0.99006
0.99023
0.990555
0.991047
0.991735
0.992509
0.993195
0.993843
0.994564
0.995406
0.996383
0.997403
0.998103
0.998405
0.99839
0.997723
0.994394
0.990281
0.988226
0.987397
0.987213
0.987287
0.987593
0.987759
0.832629
0.860034
0.871054
0.87162
0.873778
0.88005
0.884893
0.890414
0.890598
0.890012
0.888776
0.887528
0.88679
0.886404
0.886184
0.886
0.885824
0.88578
0.885835
0.88612
0.886935
0.889145
0.894509
0.901065
0.90721
0.912315
0.916417
0.91981
0.923041
0.926635
0.931664
0.940691
0.953777
0.96711
0.977873
0.984974
0.988775
0.990498
0.991265
0.991699
0.991829
0.991721
0.991086
0.989379
0.985678
0.976449
0.964769
0.960429
0.955647
0.954178
0.96783
0.979709
0.984622
0.986551
0.987358
0.987662
0.987714
0.987272
0.986982
0.98665
0.986128
0.985869
0.985534
0.985391
0.985327
0.985397
0.985696
0.986097
0.986711
0.987683
0.988842
0.98967
0.990149
0.990505
0.990733
0.990907
0.991039
0.991201
0.991318
0.99144
0.991574
0.991665
0.991782
0.991861
0.991917
0.991943
0.991926
0.991845
0.991689
0.991454
0.991137
0.990783
0.990357
0.98985
0.989241
0.98841
0.987555
0.986698
0.986049
0.985623
0.985472
0.985606
0.986186
0.987162
0.988491
0.989776
0.9904
0.990391
0.988906
0.983874
0.981438
0.981111
0.981024
0.981088
0.981286
0.981533
0.982395
0.984084
0.984132
0.983455
0.981267
0.975527
0.961534
0.954478
0.953334
0.955754
0.972121
0.987129
0.991134
0.992326
0.993634
0.994879
0.995736
0.996258
0.99647
0.996523
0.996483
0.996417
0.99628
0.996045
0.995664
0.99519
0.994706
0.994238
0.993673
0.992856
0.991743
0.990615
0.989751
0.989198
0.988981
0.988919
0.988916
0.98893
0.988945
0.988958
0.988974
0.988981
0.989019
0.98914
0.989421
0.989971
0.990809
0.991579
0.992229
0.9928
0.993345
0.994186
0.99576
0.997395
0.998307
0.998507
0.998277
0.996762
0.992136
0.988912
0.987642
0.987392
0.987461
0.987697
0.831531
0.837698
0.86085
0.87011
0.872594
0.876319
0.880986
0.884727
0.886121
0.886088
0.88578
0.885597
0.885633
0.885642
0.885585
0.8854
0.885009
0.884763
0.884569
0.884752
0.885372
0.886746
0.890121
0.895679
0.901669
0.907135
0.911837
0.915662
0.918844
0.922014
0.92483
0.927075
0.929897
0.935068
0.942441
0.95201
0.962919
0.971911
0.978973
0.984804
0.98781
0.988318
0.987651
0.983438
0.975627
0.970413
0.9657
0.96099
0.95817
0.967415
0.979941
0.985436
0.987502
0.988195
0.988363
0.988285
0.987647
0.986914
0.986201
0.985839
0.985646
0.985553
0.985519
0.985544
0.985876
0.986614
0.987975
0.989621
0.990507
0.990983
0.991169
0.99124
0.991254
0.991244
0.99125
0.991288
0.991351
0.991467
0.991569
0.99172
0.991875
0.992037
0.992225
0.992393
0.992582
0.992748
0.992907
0.993057
0.993186
0.993251
0.99328
0.993272
0.993242
0.993199
0.993102
0.992919
0.992589
0.991917
0.990664
0.989036
0.98723
0.985837
0.98509
0.984845
0.985031
0.986127
0.988458
0.990469
0.991188
0.991332
0.991281
0.990905
0.989326
0.98714
0.9864
0.986444
0.987297
0.98877
0.989258
0.989264
0.988897
0.98691
0.979032
0.964177
0.959599
0.962307
0.979105
0.98997
0.992646
0.994172
0.99543
0.996132
0.996474
0.996623
0.996574
0.996502
0.996335
0.996016
0.99561
0.995244
0.99488
0.994475
0.993983
0.993128
0.991685
0.989869
0.989061
0.988713
0.988589
0.988568
0.988649
0.988806
0.988985
0.98916
0.98926
0.989296
0.989222
0.989081
0.988943
0.988864
0.988875
0.988996
0.989402
0.990366
0.991288
0.991964
0.992539
0.992951
0.993422
0.994609
0.996747
0.998121
0.998481
0.998339
0.997175
0.992793
0.989222
0.987856
0.987481
0.987486
0.835018
0.835255
0.836717
0.846506
0.861985
0.868862
0.873641
0.877377
0.880127
0.882004
0.883036
0.883711
0.884065
0.884031
0.883772
0.883338
0.88302
0.883173
0.883571
0.884385
0.885631
0.887817
0.891873
0.897023
0.902745
0.908135
0.912891
0.916979
0.919905
0.922379
0.92525
0.9275
0.92906
0.931468
0.935256
0.940298
0.945211
0.952989
0.965776
0.976838
0.981819
0.982516
0.981307
0.975612
0.970273
0.966966
0.964063
0.961919
0.96595
0.979428
0.985565
0.987983
0.988777
0.988956
0.988912
0.988446
0.98758
0.986531
0.986045
0.985885
0.985844
0.986003
0.986419
0.987267
0.988586
0.990017
0.990652
0.990904
0.990965
0.990924
0.990675
0.990434
0.990345
0.990319
0.99032
0.990364
0.990462
0.99059
0.99074
0.990932
0.991143
0.991375
0.991642
0.991916
0.992211
0.992514
0.992813
0.993076
0.993279
0.993434
0.993537
0.993593
0.993633
0.993689
0.993752
0.993825
0.993939
0.994063
0.994146
0.994016
0.993416
0.991825
0.98933
0.986678
0.985065
0.984537
0.984718
0.986043
0.989189
0.991404
0.992079
0.992048
0.991266
0.988923
0.987967
0.988042
0.98903
0.989752
0.989731
0.989714
0.989688
0.98903
0.984796
0.970655
0.964866
0.968365
0.984379
0.991833
0.994021
0.995578
0.99643
0.996733
0.996829
0.996681
0.996531
0.996264
0.995759
0.995397
0.995079
0.994813
0.994466
0.993885
0.992756
0.990763
0.989273
0.98865
0.98844
0.988406
0.988506
0.988842
0.989384
0.990026
0.990691
0.991131
0.991327
0.991377
0.991138
0.990689
0.990026
0.989372
0.988989
0.988888
0.988943
0.989191
0.990153
0.99136
0.992164
0.992725
0.99301
0.993333
0.994189
0.996486
0.998059
0.998468
0.998325
0.997078
0.992605
0.989182
0.987893
0.987394
0.840785
0.842171
0.839991
0.838704
0.839509
0.844485
0.853999
0.861788
0.867661
0.871507
0.873871
0.875504
0.876589
0.877611
0.878701
0.880173
0.881491
0.882901
0.884787
0.887939
0.892716
0.899675
0.907622
0.915195
0.921904
0.927641
0.931812
0.935513
0.938064
0.9383
0.938104
0.938518
0.939344
0.939516
0.939984
0.941652
0.944704
0.950998
0.965487
0.976468
0.979138
0.978183
0.973124
0.96913
0.966914
0.965437
0.964481
0.966579
0.978631
0.985211
0.987974
0.988994
0.989302
0.989355
0.98923
0.988674
0.987642
0.986643
0.986345
0.98637
0.986947
0.988195
0.989108
0.989947
0.990514
0.990747
0.990785
0.990666
0.990323
0.990083
0.989991
0.989977
0.990005
0.990065
0.99014
0.990234
0.990345
0.990481
0.990656
0.990869
0.991102
0.991353
0.991631
0.991919
0.99221
0.99251
0.992817
0.993112
0.993362
0.993544
0.993654
0.993697
0.993712
0.993738
0.993775
0.993808
0.993908
0.994189
0.994528
0.994832
0.995082
0.995165
0.994919
0.993798
0.99082
0.987402
0.985455
0.98507
0.98566
0.988155
0.990781
0.991585
0.991415
0.989985
0.988906
0.988986
0.989822
0.99002
0.989179
0.988369
0.988591
0.988357
0.984351
0.971355
0.967611
0.973292
0.988005
0.99311
0.995082
0.996471
0.997001
0.99711
0.996977
0.996664
0.996342
0.995644
0.995247
0.995025
0.994824
0.994533
0.993964
0.992713
0.990703
0.989075
0.988489
0.988344
0.98836
0.988666
0.989314
0.990405
0.991618
0.992379
0.992633
0.99268
0.992646
0.992549
0.992421
0.992231
0.991894
0.991147
0.989988
0.989243
0.988994
0.989008
0.989234
0.990341
0.991813
0.992679
0.993007
0.993163
0.993435
0.994294
0.99668
0.998136
0.998451
0.998219
0.996526
0.99181
0.988946
0.987685
0.850205
0.854656
0.852002
0.84773
0.844904
0.843731
0.843867
0.84583
0.851628
0.857907
0.86336
0.867867
0.871532
0.875077
0.878096
0.881305
0.885122
0.890794
0.898568
0.909366
0.923859
0.93709
0.947398
0.955081
0.961064
0.965252
0.96753
0.968929
0.969873
0.969729
0.969022
0.966966
0.962066
0.958853
0.95819
0.958752
0.960283
0.962953
0.971907
0.977424
0.976809
0.971881
0.96866
0.967256
0.96649
0.966181
0.968243
0.97806
0.984928
0.987969
0.989268
0.989739
0.989847
0.989842
0.989724
0.989183
0.988051
0.987325
0.987285
0.988151
0.989663
0.990354
0.990683
0.990826
0.990749
0.990693
0.990421
0.990062
0.989959
0.989938
0.989958
0.990063
0.990193
0.990329
0.990486
0.990656
0.990842
0.991052
0.99133
0.991711
0.992138
0.992555
0.992981
0.993377
0.993642
0.993834
0.994001
0.994161
0.994299
0.99437
0.994349
0.994256
0.994133
0.993997
0.993874
0.993721
0.993445
0.993349
0.993818
0.994564
0.995166
0.995633
0.99598
0.996115
0.995867
0.99462
0.991042
0.987636
0.986363
0.986535
0.988318
0.990433
0.990983
0.990665
0.989852
0.989848
0.990267
0.990242
0.988796
0.984933
0.985294
0.985876
0.982153
0.970837
0.96927
0.978319
0.990309
0.993989
0.995818
0.997018
0.99739
0.997362
0.997039
0.996597
0.995853
0.995243
0.994962
0.99483
0.994631
0.994128
0.993033
0.99117
0.989185
0.988438
0.988264
0.988286
0.988666
0.989571
0.991228
0.992581
0.992972
0.993047
0.993004
0.992884
0.992749
0.992627
0.992525
0.992414
0.992268
0.992033
0.991483
0.990252
0.989409
0.989099
0.989096
0.989338
0.990763
0.992603
0.993317
0.993376
0.993404
0.993609
0.994747
0.997194
0.99829
0.998423
0.997989
0.995661
0.991064
0.988565
0.864444
0.873812
0.8749
0.871469
0.866999
0.862535
0.85939
0.858618
0.860087
0.864749
0.869589
0.87412
0.878323
0.883153
0.888104
0.895898
0.907364
0.925543
0.944389
0.959836
0.968558
0.973421
0.976149
0.977715
0.97865
0.979222
0.979553
0.979772
0.979799
0.979731
0.97952
0.979067
0.978072
0.976017
0.973863
0.972526
0.97235
0.973536
0.977717
0.977294
0.971774
0.968755
0.967878
0.96737
0.967507
0.969972
0.977931
0.984735
0.988049
0.989621
0.990334
0.990653
0.99084
0.99102
0.991003
0.990649
0.989647
0.989323
0.989608
0.99061
0.991312
0.991465
0.991334
0.990905
0.990643
0.99033
0.990047
0.989988
0.989993
0.990107
0.990338
0.990552
0.990772
0.991055
0.99131
0.991543
0.991731
0.992057
0.992749
0.99366
0.994486
0.995215
0.995882
0.996465
0.996862
0.997107
0.997221
0.997175
0.997046
0.99684
0.996458
0.995978
0.995611
0.99524
0.994855
0.994367
0.993588
0.992883
0.992407
0.992573
0.993795
0.995055
0.995958
0.996541
0.996886
0.996905
0.9964
0.994241
0.990253
0.988263
0.98815
0.989406
0.990651
0.990738
0.99031
0.990214
0.990571
0.990504
0.988825
0.982926
0.980166
0.979273
0.97478
0.969958
0.971528
0.983983
0.991946
0.994575
0.996272
0.997348
0.997665
0.997554
0.997099
0.996405
0.995394
0.994936
0.994801
0.994711
0.994347
0.993506
0.991947
0.989701
0.988504
0.988181
0.988152
0.988445
0.989416
0.991367
0.992797
0.993151
0.993197
0.99315
0.992981
0.992706
0.992424
0.992264
0.992226
0.99222
0.992197
0.992089
0.991825
0.991215
0.990114
0.989422
0.989177
0.989197
0.989576
0.991648
0.993568
0.994024
0.993869
0.993717
0.99392
0.995511
0.997715
0.998401
0.998366
0.997505
0.994482
0.990543
0.88287
0.899414
0.894266
0.89175
0.891035
0.890664
0.889218
0.887116
0.886184
0.886826
0.888923
0.891376
0.89485
0.901249
0.913951
0.936475
0.95885
0.971034
0.976412
0.978773
0.9798
0.980224
0.980392
0.980461
0.980522
0.980602
0.980684
0.980777
0.980841
0.980854
0.980826
0.980706
0.980395
0.979713
0.978002
0.976429
0.976361
0.978978
0.978449
0.972087
0.969111
0.968537
0.968254
0.968758
0.971644
0.978148
0.984403
0.987987
0.989825
0.990811
0.991289
0.991598
0.992021
0.992714
0.993135
0.993072
0.992477
0.991843
0.991771
0.992107
0.99231
0.992089
0.991462
0.990821
0.990313
0.990081
0.990016
0.990039
0.990226
0.990575
0.990901
0.991111
0.991319
0.991552
0.991743
0.991858
0.991947
0.992271
0.993177
0.994467
0.995407
0.996143
0.996791
0.997361
0.997831
0.998234
0.998584
0.998865
0.999047
0.999125
0.999024
0.998674
0.998172
0.997646
0.99706
0.996292
0.994965
0.993453
0.992279
0.991497
0.991231
0.992134
0.994308
0.995991
0.996979
0.997478
0.997626
0.997391
0.996132
0.992506
0.990333
0.990056
0.990611
0.990862
0.990573
0.990392
0.990758
0.990889
0.989407
0.982869
0.97724
0.974164
0.971435
0.970748
0.977304
0.988532
0.993014
0.994945
0.996503
0.997537
0.997849
0.997728
0.997207
0.996129
0.995095
0.994816
0.994684
0.994412
0.993903
0.992709
0.990846
0.988843
0.988132
0.987991
0.988084
0.988819
0.990582
0.992527
0.993137
0.993229
0.993211
0.993035
0.992581
0.991961
0.991484
0.991339
0.991468
0.99164
0.991746
0.991835
0.991787
0.991449
0.990629
0.989805
0.989348
0.989237
0.989325
0.990132
0.992969
0.994527
0.994656
0.994227
0.994047
0.994449
0.996566
0.998149
0.998432
0.998141
0.996436
0.993321
0.903512
0.907694
0.895495
0.891916
0.893048
0.896586
0.899893
0.90028
0.899286
0.898587
0.898865
0.901554
0.910713
0.934426
0.96271
0.975331
0.97912
0.980215
0.980513
0.98057
0.980564
0.980543
0.980497
0.980473
0.980465
0.980469
0.980534
0.9806
0.980609
0.980593
0.980499
0.980265
0.979813
0.979054
0.978208
0.978008
0.980617
0.979389
0.972288
0.969863
0.969163
0.968991
0.969673
0.972873
0.977904
0.983754
0.987658
0.989622
0.990859
0.991472
0.991788
0.992186
0.992934
0.994143
0.994779
0.994814
0.994489
0.993838
0.993298
0.993055
0.992867
0.992342
0.991464
0.990578
0.990116
0.990018
0.990027
0.990233
0.990701
0.991074
0.991264
0.991454
0.991562
0.991691
0.991841
0.991929
0.991966
0.992217
0.993121
0.994493
0.995446
0.996136
0.996714
0.997205
0.997639
0.99808
0.998535
0.998946
0.999274
0.999501
0.999637
0.99967
0.999604
0.999465
0.999247
0.998818
0.997645
0.995414
0.993274
0.991676
0.990612
0.990099
0.990505
0.993023
0.995828
0.99733
0.99798
0.99819
0.998057
0.997141
0.994111
0.992147
0.991647
0.991509
0.991031
0.9906
0.990807
0.991234
0.990617
0.985858
0.978238
0.97423
0.972594
0.975398
0.984948
0.991125
0.993686
0.995189
0.996591
0.997626
0.997968
0.99788
0.99736
0.995998
0.995006
0.994622
0.994507
0.994204
0.993314
0.9919
0.989929
0.988325
0.987883
0.987826
0.98808
0.989191
0.991128
0.992709
0.993098
0.993124
0.992971
0.992547
0.991674
0.990719
0.990184
0.990309
0.990952
0.991347
0.991447
0.991462
0.991471
0.991377
0.990912
0.990122
0.989558
0.989326
0.989325
0.989621
0.991558
0.994395
0.995257
0.995087
0.994401
0.994395
0.995322
0.997594
0.998377
0.998347
0.997502
0.99515
0.916517
0.907724
0.884921
0.874205
0.876252
0.88815
0.900306
0.903328
0.903143
0.902351
0.904027
0.91823
0.954918
0.975916
0.979737
0.980441
0.980606
0.980647
0.980645
0.980634
0.980591
0.980569
0.980499
0.980467
0.980452
0.980419
0.980397
0.980369
0.980302
0.980198
0.980011
0.979854
0.979832
0.979957
0.980368
0.980401
0.978398
0.973037
0.970851
0.969971
0.969782
0.97071
0.972854
0.977058
0.982552
0.986728
0.989242
0.990519
0.991311
0.991654
0.991886
0.992279
0.993116
0.994665
0.995698
0.99581
0.995636
0.995111
0.99439
0.99374
0.993184
0.992451
0.991423
0.990363
0.990027
0.989975
0.990061
0.990529
0.991126
0.991426
0.991599
0.991655
0.991677
0.991713
0.991843
0.991938
0.991955
0.992053
0.992739
0.994097
0.994919
0.995266
0.995426
0.995539
0.99574
0.996228
0.997003
0.997924
0.998755
0.999334
0.999646
0.999789
0.999855
0.999872
0.999847
0.999759
0.999495
0.998526
0.995893
0.993222
0.99114
0.989784
0.989215
0.989485
0.992054
0.995788
0.997676
0.998421
0.998642
0.998542
0.997737
0.995153
0.993567
0.992987
0.991858
0.990897
0.990865
0.991407
0.991362
0.989267
0.983842
0.979592
0.979519
0.984027
0.989438
0.992509
0.994137
0.995377
0.996623
0.997649
0.998043
0.998003
0.997547
0.996057
0.994914
0.994554
0.994251
0.993776
0.992877
0.991357
0.989267
0.987986
0.98766
0.987637
0.987984
0.98902
0.990742
0.992278
0.99261
0.992542
0.992149
0.99146
0.990199
0.989114
0.988866
0.9897
0.990755
0.991208
0.991336
0.991322
0.991256
0.9912
0.991026
0.990486
0.989882
0.989513
0.989423
0.989544
0.99048
0.99366
0.995507
0.995715
0.995134
0.994612
0.994867
0.996643
0.998176
0.998395
0.998029
0.996393
0.914746
0.896418
0.871287
0.863121
0.864391
0.877734
0.899241
0.904049
0.903893
0.906925
0.930577
0.970836
0.979352
0.980314
0.980464
0.980566
0.980816
0.9813
0.981835
0.982005
0.982046
0.981998
0.981699
0.981552
0.981443
0.981147
0.980981
0.980809
0.980593
0.980421
0.980119
0.979914
0.979729
0.97948
0.978609
0.976676
0.973731
0.972119
0.97115
0.970599
0.9707
0.972257
0.975295
0.979633
0.985071
0.988371
0.989989
0.990902
0.991386
0.991648
0.991858
0.992234
0.993055
0.994623
0.99597
0.996251
0.996192
0.995824
0.995117
0.994269
0.993437
0.992521
0.991301
0.990217
0.989935
0.989885
0.990047
0.990705
0.991397
0.991651
0.991714
0.99173
0.991709
0.99169
0.991763
0.9919
0.991932
0.991929
0.992236
0.993267
0.993555
0.992965
0.992129
0.991497
0.991191
0.991541
0.992661
0.994495
0.99652
0.998189
0.999193
0.999671
0.999857
0.999925
0.999951
0.999949
0.999906
0.999723
0.999026
0.996776
0.993508
0.990736
0.989113
0.988647
0.989014
0.992039
0.996139
0.998091
0.998815
0.999003
0.998899
0.998037
0.995901
0.994914
0.993269
0.991464
0.99094
0.991316
0.991852
0.991249
0.988591
0.986514
0.986597
0.988993
0.991607
0.993276
0.994476
0.995546
0.996648
0.997637
0.998088
0.998093
0.997745
0.996232
0.994942
0.994405
0.994143
0.993471
0.992166
0.990709
0.988702
0.987664
0.987404
0.987372
0.987731
0.98852
0.98973
0.99079
0.991086
0.990906
0.990363
0.989324
0.988012
0.987501
0.987953
0.989499
0.990685
0.991132
0.991226
0.991207
0.99115
0.991161
0.991144
0.990946
0.990432
0.98991
0.989659
0.989665
0.990136
0.992596
0.995369
0.996126
0.995912
0.994978
0.994902
0.995774
0.997796
0.998382
0.998274
0.997222
0.884616
0.876118
0.863374
0.860457
0.863703
0.884422
0.900686
0.904621
0.912618
0.944524
0.973633
0.979157
0.980247
0.980656
0.981179
0.982058
0.983775
0.98543
0.986034
0.986277
0.986339
0.986186
0.985826
0.985697
0.985294
0.984511
0.983873
0.982919
0.981924
0.981027
0.97967
0.978303
0.976694
0.975187
0.974337
0.974074
0.97408
0.973328
0.972397
0.971888
0.971835
0.973247
0.976992
0.981295
0.985784
0.988615
0.990036
0.990925
0.991343
0.991495
0.991596
0.992015
0.992854
0.994419
0.995958
0.996364
0.996387
0.99617
0.99557
0.994684
0.993674
0.992571
0.99096
0.990034
0.989737
0.989659
0.989941
0.990673
0.99145
0.991636
0.991714
0.991758
0.991713
0.991575
0.991538
0.991674
0.991821
0.991846
0.991849
0.992226
0.99191
0.990299
0.988631
0.987752
0.987448
0.987532
0.988021
0.989153
0.991531
0.995057
0.997707
0.999082
0.999678
0.999892
0.999958
0.999978
0.999979
0.999952
0.99983
0.999398
0.997933
0.994086
0.990428
0.988672
0.988395
0.989077
0.992998
0.996845
0.998553
0.999154
0.999281
0.999143
0.998111
0.996883
0.995313
0.992734
0.991278
0.991143
0.991863
0.992203
0.99144
0.990141
0.99005
0.991121
0.992596
0.99373
0.994743
0.995706
0.996691
0.997622
0.998107
0.998157
0.997917
0.996565
0.995037
0.994412
0.993891
0.99319
0.991835
0.990289
0.988381
0.987446
0.98717
0.987099
0.987262
0.987688
0.988043
0.988537
0.988294
0.987971
0.987484
0.986943
0.986714
0.986894
0.987699
0.989505
0.990696
0.991126
0.991147
0.991105
0.991105
0.991167
0.991454
0.991535
0.991352
0.990698
0.990145
0.989998
0.990191
0.991715
0.994959
0.996357
0.996408
0.99561
0.995057
0.995383
0.997172
0.998298
0.998376
0.997816
0.880782
0.870169
0.860128
0.860465
0.870583
0.890085
0.901198
0.912311
0.942735
0.972002
0.978684
0.980153
0.980758
0.981835
0.984008
0.987881
0.989614
0.99027
0.990532
0.990637
0.99066
0.990541
0.990432
0.990393
0.990338
0.990305
0.990219
0.989989
0.989284
0.987837
0.985485
0.982076
0.97826
0.975689
0.974472
0.974174
0.975568
0.976467
0.974607
0.972988
0.972631
0.973384
0.976829
0.981141
0.985516
0.988384
0.989868
0.990837
0.991249
0.991279
0.991058
0.991008
0.992094
0.99389
0.995768
0.996338
0.996402
0.996271
0.995787
0.994927
0.993828
0.992506
0.990693
0.989817
0.989469
0.989404
0.989618
0.990418
0.99106
0.99136
0.991675
0.991797
0.991713
0.991303
0.991091
0.991133
0.991388
0.991558
0.991587
0.991512
0.991184
0.989833
0.988017
0.987079
0.986791
0.986829
0.987065
0.9876
0.988535
0.990428
0.994522
0.997657
0.999131
0.99972
0.999918
0.999975
0.999989
0.999989
0.999972
0.999896
0.999616
0.998491
0.994195
0.989994
0.988449
0.988418
0.989817
0.994555
0.997673
0.998991
0.999425
0.999484
0.999281
0.998437
0.997372
0.994839
0.99216
0.99128
0.991437
0.992325
0.992688
0.992387
0.992187
0.992485
0.993335
0.994206
0.99508
0.995937
0.996808
0.997638
0.998132
0.99822
0.998068
0.996983
0.995238
0.994468
0.993886
0.992634
0.991381
0.990109
0.988254
0.987328
0.986994
0.986818
0.986812
0.986844
0.986819
0.986645
0.986345
0.986241
0.986217
0.986258
0.986408
0.986779
0.987917
0.989883
0.990954
0.991173
0.991129
0.991082
0.991102
0.991267
0.992008
0.992504
0.992501
0.992115
0.991103
0.990605
0.990606
0.991392
0.994362
0.996404
0.996752
0.996277
0.995305
0.995332
0.996522
0.998109
0.99843
0.998165
0.883793
0.868422
0.859677
0.861018
0.870925
0.88939
0.906443
0.934801
0.967985
0.977601
0.979924
0.980782
0.981981
0.985198
0.989333
0.990737
0.991176
0.991271
0.991276
0.991167
0.99097
0.990811
0.990683
0.990614
0.990688
0.991055
0.991539
0.992228
0.993101
0.994056
0.994548
0.994611
0.992397
0.987242
0.980638
0.976353
0.975063
0.978499
0.980162
0.976222
0.974199
0.973803
0.97572
0.980049
0.984562
0.987675
0.989228
0.990491
0.991072
0.991206
0.991011
0.990443
0.9903
0.991785
0.994736
0.995984
0.996257
0.9962
0.995809
0.994953
0.993778
0.992065
0.990425
0.989571
0.989214
0.989152
0.989282
0.989941
0.990727
0.99143
0.99185
0.991919
0.991753
0.991119
0.990725
0.990628
0.990679
0.990865
0.990984
0.990981
0.990884
0.990413
0.988931
0.987653
0.987082
0.987019
0.987131
0.987514
0.988192
0.989221
0.991201
0.995248
0.998061
0.99933
0.999798
0.999946
0.999986
0.999994
0.999994
0.999983
0.999927
0.999655
0.998251
0.993127
0.989394
0.988444
0.988754
0.991546
0.996091
0.998416
0.999347
0.999624
0.999632
0.999411
0.998779
0.997392
0.994028
0.991823
0.991392
0.991785
0.992692
0.993252
0.993482
0.993745
0.994238
0.994861
0.995556
0.996269
0.997005
0.997715
0.998175
0.998283
0.998197
0.997474
0.995579
0.994611
0.993958
0.992582
0.990984
0.989713
0.988085
0.987106
0.986707
0.986493
0.98638
0.986282
0.986152
0.985978
0.985907
0.985916
0.986001
0.986146
0.986399
0.987084
0.989078
0.990894
0.991257
0.991211
0.991076
0.991077
0.991175
0.991539
0.992762
0.993898
0.994058
0.993862
0.992754
0.991627
0.991366
0.991679
0.993799
0.996316
0.997012
0.996809
0.995683
0.99541
0.996023
0.997821
0.998442
0.998361
0.89158
0.876313
0.860392
0.859958
0.867751
0.885913
0.913143
0.952812
0.974331
0.97906
0.980361
0.981559
0.984483
0.988688
0.990492
0.990984
0.991052
0.99068
0.989691
0.988498
0.987435
0.986392
0.985869
0.985686
0.985746
0.986301
0.987088
0.988018
0.98973
0.992052
0.994889
0.996864
0.997686
0.99807
0.996491
0.989666
0.980463
0.975695
0.979485
0.981859
0.980033
0.975914
0.975949
0.977356
0.981743
0.986153
0.98831
0.989612
0.990644
0.991082
0.991045
0.9906
0.98987
0.989864
0.991245
0.994057
0.995341
0.995643
0.995443
0.994677
0.993125
0.991359
0.990041
0.989287
0.988974
0.988923
0.989038
0.989654
0.990645
0.991481
0.991919
0.991993
0.991819
0.991141
0.99069
0.990534
0.990512
0.990531
0.990606
0.99067
0.990681
0.990653
0.990484
0.989815
0.988905
0.988582
0.988622
0.988753
0.98898
0.989434
0.990584
0.993114
0.996644
0.99873
0.999591
0.999883
0.99997
0.999993
0.999997
0.999996
0.999984
0.999903
0.999413
0.996621
0.991296
0.988952
0.988715
0.98973
0.993995
0.997436
0.999012
0.999607
0.999758
0.99974
0.999548
0.99893
0.996952
0.993287
0.991678
0.991531
0.992138
0.993142
0.993788
0.994311
0.994803
0.995343
0.995924
0.996516
0.997131
0.99774
0.998186
0.998331
0.998294
0.997855
0.99617
0.994902
0.994158
0.992682
0.990994
0.989631
0.988107
0.98711
0.986569
0.986268
0.986104
0.985993
0.98589
0.985845
0.985847
0.985884
0.986003
0.986233
0.986777
0.9883
0.990818
0.991379
0.991332
0.991109
0.99098
0.991085
0.99146
0.992261
0.993849
0.994862
0.99524
0.995222
0.994707
0.993103
0.992415
0.992455
0.993621
0.996205
0.997209
0.997171
0.996179
0.995528
0.995805
0.997403
0.998404
0.998474
0.899542
0.884897
0.863034
0.860423
0.865681
0.882838
0.912551
0.957772
0.975975
0.979461
0.980756
0.982006
0.984869
0.988846
0.990534
0.990887
0.990571
0.98921
0.98711
0.986039
0.985384
0.984304
0.983447
0.98301
0.982991
0.983898
0.984779
0.985495
0.986001
0.986806
0.988772
0.993798
0.997221
0.998708
0.999274
0.999306
0.996887
0.986114
0.977239
0.978157
0.982033
0.981603
0.978783
0.977939
0.979054
0.982451
0.98659
0.988651
0.989878
0.990791
0.991025
0.990925
0.990202
0.98955
0.989568
0.990396
0.992137
0.993402
0.993646
0.993253
0.99198
0.990613
0.989589
0.988989
0.988753
0.988725
0.988851
0.98951
0.990657
0.99157
0.992043
0.992131
0.991984
0.991312
0.990787
0.990578
0.990533
0.990539
0.990588
0.990666
0.990702
0.990752
0.990868
0.991059
0.991206
0.991184
0.991267
0.991493
0.991653
0.991593
0.991521
0.99263
0.995703
0.998167
0.999359
0.999806
0.999947
0.999987
0.999997
0.999998
0.999995
0.999963
0.999742
0.998394
0.993499
0.989973
0.989097
0.989453
0.992191
0.996308
0.998492
0.999442
0.999776
0.999841
0.999809