/*--------------------------------*- C++ -*----------------------------------*\
  =========                 |
  \\      /  F ield         | OpenFOAM: The Open Source CFD Toolbox
   \\    /   O peration     | Website:  https://openfoam.org
    \\  /    A nd           | Version:  6
     \\/     M anipulation  |
\*---------------------------------------------------------------------------*/
FoamFile
{
    version     2.0;
    format      ascii;
    class       volScalarField;
    location    "0.2";
    object      s_0;
}
// * * * * * * * * * * * * * * * * * * * * * * * * * * * * * * * * * * * * * //

dimensions      [0 0 0 0 0 0 0];

internalField   nonuniform List<scalar> 
12225
(
1
1
1
1
1
1
1
1
1
1
1
1
1
1
1
1
1
1
1
1
1
1
1
1
1
1
1
1
1
1
1
1
1
1
1
1
1
1
1
1
1
1
1
1
1
1
1
1
1
1
1
1
1
1
1
1
1
1
1
1
1
1
1
1
1
1
1
1
1
1
1
1
1
1
1
1
1
1
1
1
1
1
1
1
1
1
1
1
1
1
1
1
1
1
1
1
1
1
1
1
1
1
1
1
1
1
1
1
1
1
1
1
1
1
1
1
1
1
1
1
1
1
1
1
1
1
1
1
1
1
1
1
1
1
1
1
1
1
1
1
1
1
1
1
1
1
1
1
1
1
1
1
1
1
1
1
1
1
1
1
1
1
1
1
1
1
1
1
1
1
1
1
1
1
1
1
1
1
1
1
1
1
1
1
1
1
1
1
1
1
1
1
1
1
1
1
1
1
1
1
1
1
1
1
1
1
1
1
1
1
1
1
1
1
1
1
1
1
1
1
1
1
1
1
1
1
1
1
1
1
1
1
1
1
1
1
1
1
1
1
1
1
1
1
1
1
1
1
1
1
1
1
1
1
1
1
1
1
1
1
1
1
1
1
1
1
1
1
1
1
1
1
1
1
1
1
1
1
1
1
1
1
1
1
1
1
1
1
1
1
1
1
1
1
1
1
1
1
1
1
1
1
1
1
1
1
1
1
1
1
1
1
1
1
1
1
1
1
1
1
1
1
1
1
1
1
1
1
1
1
1
1
1
1
1
1
1
1
1
1
1
1
1
1
1
1
1
1
1
1
1
1
1
1
1
1
1
1
1
1
1
1
1
1
1
1
1
1
1
1
1
1
1
1
1
1
1
1
1
1
1
1
1
1
1
1
1
1
1
1
1
1
1
1
1
1
1
1
1
1
1
1
1
1
1
1
1
1
1
1
1
1
1
1
1
1
1
1
1
1
1
1
1
1
1
1
1
1
1
1
1
1
1
1
1
1
1
1
1
1
1
1
1
1
1
1
1
1
1
1
1
1
1
1
1
1
1
1
1
1
1
1
1
1
1
1
1
1
1
1
1
1
1
1
1
1
1
1
1
1
1
1
1
1
1
1
1
1
1
1
1
1
1
1
1
1
1
1
1
1
1
1
1
1
1
1
1
1
1
1
1
1
1
1
1
1
1
1
1
1
1
1
1
1
1
1
1
1
1
1
1
1
1
1
1
1
1
1
1
1
0.826177
0.827518
0.830424
0.828154
0.830451
0.860988
0.8764
0.885891
0.897443
0.904894
0.912336
0.919139
0.925949
0.932469
0.938801
0.944474
0.948215
0.952315
0.9557
0.95887
0.961609
0.963813
0.965701
0.967344
0.968762
0.969982
0.971047
0.971961
0.972653
0.972998
0.973013
0.972665
0.971357
0.969193
0.966983
0.965454
0.964962
0.965006
0.965504
0.966031
0.96603
0.965427
0.96329
0.960272
0.952787
0.937494
0.927916
0.925798
0.928706
0.941323
0.947007
0.956485
0.960392
0.966159
0.975697
0.978734
0.979147
0.979352
0.979649
0.97998
0.980233
0.980402
0.98047
0.980505
0.980542
0.980574
0.980618
0.980677
0.980712
0.980753
0.980799
0.980839
0.98089
0.980949
0.98097
0.980956
0.980843
0.980736
0.980557
0.980373
0.980078
0.979822
0.979479
0.979077
0.978608
0.978103
0.97751
0.976844
0.976053
0.975212
0.974253
0.973136
0.971922
0.970558
0.969082
0.967406
0.965374
0.962864
0.95968
0.955847
0.951755
0.948181
0.945838
0.944768
0.944363
0.944192
0.944065
0.943885
0.943505
0.942981
0.942754
0.942758
0.942765
0.942616
0.942487
0.942504
0.942421
0.941919
0.94099
0.940647
0.940731
0.943141
0.957452
0.966916
0.968217
0.971249
0.979307
0.986093
0.989581
0.990954
0.991375
0.991474
0.991596
0.992132
0.993385
0.994054
0.9943
0.994453
0.994594
0.994723
0.994836
0.994938
0.995023
0.995094
0.995165
0.995212
0.995248
0.995284
0.9953
0.995305
0.995306
0.995294
0.99526
0.995227
0.995185
0.995153
0.995127
0.995082
0.995037
0.994957
0.994831
0.994643
0.994372
0.994005
0.993533
0.992935
0.992174
0.991115
0.989648
0.988169
0.987427
0.987288
0.987351
0.987587
0.987725
0.98777
0.987772
0.987732
0.987571
0.987422
0.829997
0.842297
0.860177
0.857067
0.857136
0.873213
0.88168
0.894773
0.903631
0.908983
0.916499
0.921116
0.924072
0.925363
0.927991
0.929736
0.932306
0.936422
0.941136
0.946901
0.952777
0.958183
0.962155
0.964949
0.96715
0.969242
0.971557
0.974294
0.977519
0.980966
0.98406
0.98629
0.987578
0.988173
0.988389
0.98846
0.988597
0.98907
0.989744
0.990031
0.990023
0.989793
0.988984
0.986304
0.979476
0.965988
0.949852
0.935566
0.932698
0.933976
0.936052
0.947837
0.965741
0.975555
0.979272
0.981056
0.982553
0.983534
0.984457
0.985088
0.985483
0.98584
0.986023
0.986259
0.98641
0.986598
0.986742
0.986905
0.986998
0.987103
0.98717
0.987207
0.987224
0.987215
0.987215
0.987236
0.987273
0.987313
0.98736
0.987395
0.987423
0.987434
0.987438
0.987435
0.987413
0.987383
0.987352
0.987299
0.987223
0.987162
0.98709
0.987003
0.98692
0.986818
0.986767
0.9867
0.986632
0.986527
0.986314
0.985784
0.984408
0.981275
0.976646
0.971682
0.967741
0.965263
0.963432
0.961385
0.95952
0.958644
0.958548
0.958957
0.959857
0.960147
0.960159
0.960156
0.960018
0.959302
0.958223
0.956268
0.949998
0.947177
0.949122
0.950245
0.950557
0.95262
0.962339
0.977772
0.986709
0.990339
0.991345
0.991638
0.992074
0.993085
0.994268
0.994988
0.995454
0.995789
0.996019
0.996191
0.996317
0.996404
0.996472
0.996502
0.996512
0.996498
0.996411
0.996285
0.996121
0.99591
0.995638
0.995387
0.995123
0.994924
0.994811
0.994774
0.994884
0.995087
0.995375
0.995709
0.996027
0.99635
0.996668
0.996985
0.9973
0.997577
0.997767
0.997822
0.997701
0.996807
0.993419
0.989843
0.988077
0.987366
0.987177
0.987214
0.987499
0.987673
0.987696
0.987683
0.835203
0.864005
0.869317
0.868519
0.8711
0.880896
0.886247
0.89426
0.898958
0.9
0.899343
0.895974
0.892863
0.891422
0.890657
0.890316
0.890562
0.891395
0.892965
0.895653
0.899968
0.906696
0.914557
0.92136
0.926694
0.931032
0.935176
0.94015
0.946867
0.955794
0.966514
0.976565
0.983415
0.987705
0.990194
0.99159
0.992324
0.992618
0.992673
0.992642
0.992435
0.991812
0.991229
0.990245
0.987779
0.980217
0.961508
0.947914
0.945094
0.946178
0.95019
0.967037
0.978525
0.982814
0.98475
0.986011
0.986666
0.986964
0.987051
0.986991
0.986856
0.986693
0.986492
0.986328
0.986049
0.985733
0.985614
0.985577
0.985569
0.985599
0.985757
0.986074
0.986426
0.986767
0.987135
0.987471
0.987743
0.98792
0.988122
0.988224
0.988346
0.98839
0.98841
0.988413
0.988374
0.988303
0.988197
0.988055
0.987903
0.987762
0.987593
0.987402
0.987176
0.986926
0.986737
0.986498
0.986366
0.986329
0.986405
0.986606
0.986761
0.986699
0.986343
0.986406
0.98666
0.986829
0.98663
0.985402
0.981025
0.976002
0.973044
0.971842
0.97168
0.971565
0.971174
0.971006
0.971086
0.971022
0.970356
0.968727
0.965431
0.956682
0.952
0.950863
0.950919
0.952888
0.965679
0.982978
0.989523
0.991257
0.991889
0.992729
0.993991
0.995229
0.995893
0.996237
0.996396
0.996444
0.996444
0.996399
0.996322
0.996206
0.995968
0.995544
0.995079
0.994531
0.993926
0.993245
0.992545
0.991837
0.991179
0.990666
0.990304
0.990122
0.99003
0.990001
0.990091
0.990267
0.9906
0.9911
0.991793
0.99256
0.993237
0.993883
0.994606
0.995452
0.996431
0.997441
0.998123
0.998411
0.998388
0.997683
0.99426
0.990201
0.988189
0.987384
0.98721
0.98729
0.987599
0.987761
0.832629
0.860037
0.871055
0.871623
0.873782
0.880049
0.88489
0.890403
0.890586
0.890002
0.888769
0.887526
0.88679
0.886405
0.886185
0.886002
0.885828
0.885786
0.885844
0.886135
0.886962
0.889207
0.894625
0.901195
0.907338
0.91243
0.916519
0.919904
0.92314
0.926755
0.931853
0.941006
0.954157
0.967458
0.978136
0.985139
0.988864
0.990549
0.9913
0.991721
0.99184
0.991722
0.991061
0.98931
0.985527
0.97615
0.964606
0.960374
0.955617
0.9543
0.967968
0.979759
0.984648
0.986576
0.987383
0.987687
0.987739
0.987297
0.986998
0.986664
0.986135
0.985873
0.985534
0.985385
0.985317
0.985376
0.985662
0.986059
0.986654
0.987603
0.988758
0.989611
0.990105
0.990468
0.990705
0.990884
0.991018
0.991181
0.991301
0.991421
0.991556
0.991645
0.99176
0.991838
0.99189
0.991914
0.991893
0.991806
0.991643
0.991401
0.991082
0.990725
0.990296
0.989786
0.989177
0.988346
0.987495
0.986654
0.986017
0.9856
0.985461
0.985608
0.986209
0.987199
0.98854
0.989808
0.990412
0.990389
0.988816
0.983728
0.981354
0.981038
0.980952
0.981027
0.98123
0.981482
0.98238
0.98405
0.98408
0.983376
0.981142
0.975251
0.961269
0.954402
0.953345
0.955916
0.972655
0.98732
0.991178
0.992348
0.993661
0.9949
0.995751
0.996267
0.996475
0.996526
0.996485
0.996418
0.996279
0.996042
0.99566
0.995189
0.994708
0.994242
0.993682
0.992877
0.99178
0.990656
0.989789
0.989219
0.988991
0.988921
0.988916
0.988928
0.988941
0.988954
0.98897
0.988979
0.989022
0.989152
0.989446
0.990012
0.990856
0.991617
0.99226
0.992827
0.993376
0.99424
0.995829
0.997444
0.998327
0.99851
0.998265
0.996681
0.99201
0.988857
0.987624
0.98739
0.987464
0.9877
0.831529
0.837714
0.860886
0.870122
0.872602
0.876323
0.880993
0.884729
0.886118
0.886084
0.885777
0.885597
0.885635
0.885645
0.885588
0.885402
0.885013
0.88477
0.884577
0.884761
0.885387
0.886778
0.8902
0.895785
0.901782
0.907242
0.911931
0.915741
0.918918
0.922087
0.924892
0.927137
0.930003
0.935248
0.942695
0.952335
0.963259
0.972203
0.979217
0.984971
0.98788
0.988342
0.987623
0.983227
0.975409
0.97025
0.965591
0.960934
0.958214
0.9676
0.980015
0.98547
0.987528
0.988221
0.98839
0.988314
0.987679
0.986938
0.986212
0.985844
0.98565
0.985554
0.985518
0.985538
0.985858
0.986576
0.987906
0.989559
0.990473
0.990969
0.991164
0.99124
0.991256
0.991248
0.991255
0.991293
0.991355
0.99147
0.991572
0.991722
0.991877
0.992038
0.992226
0.992393
0.99258
0.992745
0.992901
0.99305
0.993179
0.993244
0.993271
0.99326
0.993227
0.993181
0.993077
0.992886
0.992542
0.991847
0.990577
0.98894
0.987143
0.985785
0.985059
0.984834
0.985039
0.986197
0.988542
0.990522
0.991203
0.991333
0.99127
0.990871
0.989235
0.987077
0.986369
0.986425
0.987319
0.988785
0.989259
0.989261
0.988873
0.986818
0.978681
0.96396
0.959591
0.96251
0.979559
0.99009
0.99268
0.994198
0.99545
0.996146
0.996483
0.996628
0.996576
0.996503
0.996333
0.996008
0.995603
0.99524
0.99488
0.994477
0.993988
0.993144
0.991725
0.989904
0.989072
0.988716
0.988588
0.988566
0.988641
0.988792
0.988964
0.989132
0.989228
0.989263
0.989191
0.989056
0.988927
0.988856
0.988873
0.989004
0.989434
0.990417
0.991323
0.99199
0.992559
0.992969
0.993452
0.994682
0.996815
0.998151
0.998487
0.998331
0.997115
0.992662
0.989168
0.987838
0.987476
0.987484
0.83501
0.835246
0.836722
0.846569
0.862034
0.868891
0.873662
0.877394
0.880143
0.882017
0.883048
0.883724
0.884077
0.884045
0.883788
0.883353
0.883031
0.883182
0.883578
0.88439
0.885636
0.887831
0.891906
0.897075
0.902808
0.908194
0.912944
0.917014
0.919926
0.922415
0.925295
0.927534
0.929102
0.931549
0.935379
0.940438
0.945393
0.953294
0.966117
0.977071
0.981919
0.982548
0.981246
0.975393
0.970134
0.966877
0.964014
0.961935
0.966171
0.979522
0.985599
0.988004
0.988798
0.988978
0.988938
0.988483
0.987626
0.98657
0.986058
0.985894
0.985852
0.986014
0.986434
0.98728
0.988561
0.989999
0.990646
0.990907
0.990972
0.990938
0.990697
0.990448
0.990353
0.990324
0.990323
0.990363
0.990458
0.990585
0.990732
0.990922
0.991132
0.991363
0.991629
0.991903
0.992199
0.992503
0.992803
0.993067
0.993271
0.993427
0.993531
0.993589
0.99363
0.993687
0.993751
0.993825
0.993939
0.994057
0.994131
0.993985
0.993353
0.991714
0.989203
0.986574
0.985013
0.984517
0.984724
0.986119
0.989289
0.99145
0.992091
0.992048
0.991219
0.988856
0.987942
0.988034
0.989053
0.989758
0.989734
0.989718
0.989687
0.98899
0.984562
0.970313
0.964842
0.96861
0.984722
0.991911
0.994052
0.9956
0.996444
0.996742
0.996835
0.996683
0.996531
0.996257
0.995749
0.995391
0.995076
0.994811
0.994467
0.99389
0.992772
0.99079
0.989285
0.988655
0.988438
0.988402
0.988495
0.98882
0.989347
0.98997
0.990625
0.991065
0.991261
0.99131
0.991067
0.990613
0.989952
0.98933
0.988969
0.988881
0.988944
0.98921
0.990213
0.991402
0.992189
0.992739
0.99302
0.993352
0.994248
0.996566
0.998093
0.998475
0.998318
0.997017
0.992484
0.989134
0.987877
0.987381
0.840768
0.842138
0.839962
0.838691
0.839513
0.844535
0.854065
0.861853
0.867718
0.871557
0.873916
0.875546
0.876628
0.877646
0.878727
0.880193
0.881502
0.882899
0.884772
0.887908
0.892666
0.899616
0.907552
0.915112
0.921796
0.927493
0.931659
0.935371
0.937899
0.938132
0.937968
0.938462
0.939307
0.93949
0.939984
0.941714
0.944815
0.951248
0.965838
0.976645
0.979188
0.978151
0.972978
0.969052
0.966873
0.965422
0.964491
0.96674
0.978758
0.985255
0.987996
0.989011
0.98932
0.989375
0.989259
0.98872
0.987701
0.986681
0.986367
0.986388
0.986969
0.988237
0.98915
0.989961
0.99052
0.990753
0.990793
0.990676
0.990338
0.990089
0.989992
0.989976
0.990001
0.990058
0.99013
0.990223
0.990332
0.990466
0.990637
0.990847
0.991077
0.991326
0.9916
0.991887
0.992178
0.992479
0.992789
0.993087
0.993341
0.993526
0.99364
0.993687
0.993705
0.993734
0.993774
0.993811
0.993921
0.9942
0.994538
0.994837
0.995081
0.995149
0.994878
0.993702
0.990664
0.987274
0.985396
0.985054
0.985688
0.98826
0.990845
0.991601
0.991406
0.989925
0.988882
0.988981
0.989837
0.99002
0.989151
0.988378
0.988598
0.988328
0.984103
0.971079
0.967609
0.973617
0.988223
0.993164
0.995109
0.996488
0.997011
0.997117
0.996981
0.996665
0.996337
0.995634
0.99524
0.995021
0.994823
0.994532
0.993965
0.99272
0.99072
0.989081
0.988489
0.98834
0.988351
0.988649
0.989282
0.990351
0.991554
0.992343
0.992614
0.992669
0.99264
0.992545
0.992414
0.992215
0.991858
0.991068
0.989913
0.989211
0.988984
0.989008
0.989254
0.990419
0.991862
0.992698
0.993013
0.99317
0.993451
0.994353
0.996757
0.998164
0.998456
0.998208
0.996447
0.991713
0.988906
0.987665
0.850177
0.854592
0.851932
0.847671
0.844861
0.843706
0.843853
0.845845
0.851678
0.857955
0.863403
0.867903
0.871562
0.875098
0.878108
0.8813
0.88509
0.890711
0.89844
0.90917
0.923615
0.936821
0.947122
0.954822
0.960848
0.965076
0.96737
0.968792
0.969752
0.969607
0.968891
0.966781
0.961876
0.958755
0.958148
0.958753
0.960304
0.963017
0.972084
0.977488
0.976796
0.971782
0.968626
0.967244
0.966491
0.966206
0.968365
0.978232
0.984988
0.987999
0.989293
0.989767
0.989879
0.989873
0.989765
0.989245
0.988131
0.987381
0.987331
0.988194
0.989712
0.990401
0.990718
0.990853
0.99076
0.990702
0.990435
0.990067
0.989959
0.989937
0.989953
0.990053
0.990179
0.990311
0.990463
0.990629
0.99081
0.991014
0.991283
0.991656
0.992071
0.992477
0.992891
0.993279
0.993542
0.993739
0.993917
0.994085
0.99423
0.994311
0.9943
0.994218
0.994102
0.993973
0.993858
0.993711
0.993441
0.993369
0.993864
0.994597
0.995187
0.995645
0.995984
0.996103
0.995828
0.994516
0.99087
0.987532
0.986325
0.986539
0.988393
0.990481
0.990995
0.990645
0.989833
0.989842
0.990272
0.990236
0.98872
0.98491
0.985311
0.985837
0.981887
0.970634
0.969303
0.978696
0.990452
0.99403
0.995841
0.997031
0.997398
0.997368
0.997041
0.996596
0.995841
0.995236
0.994957
0.994827
0.994628
0.994126
0.993032
0.991176
0.989188
0.988436
0.988258
0.988278
0.988651
0.989538
0.991167
0.992551
0.992962
0.993044
0.993006
0.99289
0.992758
0.992637
0.992534
0.992419
0.992268
0.992022
0.991432
0.99018
0.989375
0.989088
0.989095
0.989362
0.990866
0.992656
0.993324
0.993373
0.993404
0.993625
0.994827
0.997253
0.99831
0.998426
0.997969
0.995564
0.990995
0.988532
0.864406
0.873704
0.874772
0.871336
0.866873
0.862428
0.859314
0.858566
0.86006
0.864742
0.869579
0.874106
0.878303
0.883119
0.888039
0.895772
0.907142
0.925224
0.944064
0.95959
0.968398
0.973317
0.976081
0.97767
0.978619
0.9792
0.979536
0.979757
0.979783
0.979714
0.979501
0.979042
0.978032
0.975966
0.973822
0.972505
0.972339
0.973553
0.97776
0.977289
0.971708
0.968742
0.967879
0.967374
0.967538
0.970093
0.978092
0.984798
0.988084
0.989651
0.990364
0.990685
0.990876
0.991082
0.991083
0.990764
0.989784
0.989434
0.989697
0.990658
0.991365
0.991517
0.991375
0.990932
0.990653
0.990339
0.990049
0.989987
0.98999
0.990098
0.990323
0.990534
0.990748
0.991025
0.99128
0.991518
0.991709
0.992027
0.992697
0.993585
0.994407
0.995135
0.995802
0.996388
0.996781
0.997013
0.997111
0.997054
0.996923
0.996717
0.996344
0.995886
0.995539
0.995176
0.9948
0.994321
0.993557
0.992866
0.99241
0.992626
0.993879
0.99511
0.995988
0.996556
0.996887
0.996888
0.996347
0.994084
0.990115
0.988209
0.98814
0.989456
0.99067
0.990738
0.990294
0.99021
0.990576
0.990496
0.988749
0.982815
0.980128
0.979169
0.974529
0.969901
0.971683
0.984326
0.992039
0.994605
0.996291
0.997359
0.997671
0.997558
0.9971
0.996397
0.995383
0.99493
0.994797
0.994707
0.994342
0.993498
0.991941
0.989701
0.9885
0.988174
0.988144
0.988432
0.989387
0.991317
0.99278
0.993147
0.993197
0.993154
0.992991
0.992726
0.992455
0.992297
0.992256
0.992242
0.992211
0.992092
0.991816
0.991167
0.990064
0.989395
0.98917
0.989198
0.989618
0.991773
0.993616
0.994022
0.993855
0.993713
0.993937
0.9956
0.99776
0.998413
0.998365
0.997466
0.994395
0.990494
0.882825
0.899358
0.894259
0.891748
0.891015
0.890618
0.889149
0.88705
0.886126
0.886776
0.888882
0.891329
0.894784
0.901123
0.91369
0.936109
0.958548
0.970881
0.976334
0.978735
0.979782
0.980216
0.980389
0.98046
0.980522
0.980603
0.980684
0.980777
0.980842
0.980855
0.980828
0.980707
0.980397
0.979711
0.977993
0.976422
0.976351
0.978993
0.97845
0.972063
0.969111
0.968541
0.968265
0.968794
0.971739
0.978248
0.984468
0.988016
0.989847
0.990833
0.991309
0.99162
0.992049
0.992757
0.993213
0.99317
0.992611
0.991961
0.991862
0.99216
0.992361
0.992137
0.9915
0.990846
0.990319
0.990082
0.990015
0.990035
0.990217
0.990559
0.990885
0.991095
0.991302
0.991536
0.991731
0.99185
0.99194
0.992253
0.993145
0.994431
0.995378
0.996121
0.996773
0.997348
0.997823
0.998228
0.998578
0.998852
0.999023
0.999089
0.998968
0.998591
0.998074
0.997545
0.996959
0.996197
0.994882
0.993394
0.992246
0.991483
0.991256
0.992244
0.994417
0.996054
0.997006
0.997487
0.997617
0.997361
0.99603
0.992362
0.990274
0.990041
0.990626
0.990862
0.99056
0.990389
0.990767
0.990886
0.989342
0.982731
0.977173
0.974091
0.971378
0.970789
0.977676
0.988727
0.993071
0.99497
0.996518
0.997546
0.997855
0.997731
0.997207
0.996119
0.995087
0.994811
0.99468
0.994404
0.99389
0.992694
0.990838
0.988837
0.988125
0.987983
0.988072
0.988798
0.990543
0.992507
0.993133
0.99323
0.993214
0.993046
0.992606
0.992004
0.991538
0.991394
0.991513
0.99167
0.991774
0.991857
0.991793
0.99143
0.990581
0.989769
0.989331
0.989233
0.989334
0.990221
0.993094
0.994561
0.994652
0.994204
0.994045
0.994481
0.99665
0.998177
0.998438
0.998127
0.996367
0.993292
0.903509
0.907705
0.895537
0.891981
0.893105
0.896616
0.899896
0.900267
0.899269
0.898572
0.89884
0.901496
0.910542
0.934048
0.962394
0.975214
0.979079
0.980202
0.980509
0.980569
0.980564
0.980544
0.980498
0.980473
0.980466
0.980469
0.980534
0.980603
0.980613
0.9806
0.980509
0.980276
0.979822
0.979061
0.978201
0.97798
0.980624
0.979423
0.97231
0.969871
0.969169
0.969
0.969691
0.972923
0.977965
0.983799
0.987684
0.989637
0.99087
0.99148
0.991793
0.992189
0.992937
0.99416
0.994831
0.994879
0.994576
0.993939
0.993384
0.993112
0.992908
0.992381
0.991501
0.990598
0.990117
0.990016
0.990022
0.990226
0.99069
0.991064
0.991254
0.991444
0.991554
0.991686
0.991838
0.991927
0.991963
0.992206
0.993097
0.994467
0.99543
0.99613
0.996719
0.997223
0.997666
0.998111
0.998562
0.998965
0.999284
0.999504
0.999635
0.999659
0.999581
0.999431
0.999199
0.998745
0.997522
0.995291
0.993186
0.991623
0.990586
0.990107
0.99058
0.993192
0.995927
0.997372
0.997993
0.998186
0.998038
0.997066
0.993987
0.992093
0.991627
0.991496
0.991012
0.990593
0.990816
0.991234
0.990587
0.985735
0.978176
0.974204
0.972637
0.975679
0.985224
0.991229
0.993724
0.995211
0.996606
0.997635
0.997973
0.997882
0.997358
0.995987
0.994999
0.994617
0.994499
0.994194
0.993299
0.991884
0.989916
0.988317
0.987874
0.987817
0.988068
0.98917
0.991098
0.992698
0.993098
0.993128
0.992982
0.992569
0.991714
0.990777
0.990251
0.990368
0.990985
0.991366
0.991459
0.991476
0.991486
0.991378
0.990873
0.990081
0.989532
0.989317
0.989324
0.989653
0.991714
0.994479
0.995269
0.995068
0.994383
0.994396
0.995391
0.997644
0.998389
0.998346
0.997461
0.99512
0.916525
0.907741
0.884979
0.874323
0.876386
0.888261
0.900329
0.903329
0.903143
0.902344
0.903967
0.917958
0.954436
0.975794
0.979709
0.980433
0.980603
0.980646
0.980645
0.980634
0.98059
0.980568
0.980499
0.980463
0.980448
0.980416
0.980395
0.980368
0.980304
0.980203
0.980019
0.979855
0.979831
0.979949
0.980374
0.980432
0.978487
0.973088
0.970872
0.969978
0.969787
0.97072
0.972866
0.977059
0.982578
0.986748
0.989251
0.990525
0.991313
0.991653
0.991883
0.992273
0.993105
0.994654
0.995721
0.995845
0.995684
0.995177
0.994459
0.993794
0.99322
0.992482
0.991454
0.990371
0.990026
0.989971
0.990054
0.99052
0.991118
0.99142
0.991595
0.991651
0.991675
0.991712
0.991842
0.991939
0.991954
0.992051
0.99273
0.994088
0.994931
0.995302
0.99549
0.995632
0.995858
0.99636
0.997132
0.998028
0.998822
0.999367
0.999658
0.999793
0.999855
0.999867
0.999837
0.999743
0.99946
0.998415
0.995724
0.993097
0.991059
0.989747
0.989212
0.989536
0.992251
0.995912
0.997727
0.998437
0.998641
0.998527
0.997672
0.995055
0.993522
0.992952
0.991824
0.990883
0.990865
0.991419
0.991354
0.989206
0.983809
0.979674
0.979706
0.984261
0.989574
0.992565
0.994165
0.995398
0.996639
0.997659
0.998048
0.998005
0.997544
0.996045
0.994906
0.994548
0.994243
0.99376
0.992852
0.991335
0.989248
0.987975
0.987649
0.987626
0.987972
0.989
0.990715
0.992269
0.992614
0.992556
0.992175
0.991501
0.990258
0.98919
0.988938
0.989756
0.990784
0.991227
0.991346
0.991329
0.991263
0.991201
0.991006
0.99044
0.989844
0.989493
0.989417
0.989555
0.990581
0.993809
0.995552
0.995718
0.995099
0.994605
0.994887
0.996717
0.998203
0.998399
0.998011
0.996362
0.914789
0.896442
0.871293
0.863136
0.864408
0.877774
0.899239
0.904051
0.903885
0.906809
0.930077
0.970578
0.979314
0.980309
0.980463
0.980559
0.980799
0.981269
0.981822
0.982003
0.982048
0.982005
0.981704
0.981542
0.981434
0.981139
0.980968
0.980801
0.980591
0.980428
0.980142
0.979955
0.979795
0.979576
0.978724
0.976785
0.97378
0.972143
0.971172
0.970608
0.9707
0.97224
0.975284
0.979614
0.985054
0.988371
0.989987
0.990901
0.991383
0.991645
0.991853
0.992227
0.993043
0.994607
0.995972
0.996264
0.996214
0.99586
0.995163
0.994312
0.993467
0.992542
0.991308
0.990215
0.989929
0.989878
0.99004
0.990697
0.991394
0.99165
0.991714
0.991729
0.991708
0.991692
0.991768
0.991904
0.991934
0.99193
0.992237
0.993279
0.993594
0.993056
0.992266
0.991676
0.991399
0.991792
0.992948
0.994782
0.996725
0.998314
0.999251
0.999693
0.999863
0.999926
0.99995
0.999946
0.999899
0.999701
0.998947
0.996583
0.993326
0.990621
0.989067
0.98864
0.989063
0.992253
0.996266
0.998141
0.99883
0.999002
0.998887
0.997971
0.995838
0.994866
0.993214
0.991431
0.990933
0.991329
0.991856
0.991231
0.988577
0.986568
0.986702
0.989111
0.991673
0.993311
0.994501
0.995567
0.996666
0.997648
0.998093
0.998095
0.997741
0.996219
0.994934
0.994398
0.994133
0.993453
0.992137
0.990679
0.988679
0.987651
0.987392
0.987361
0.987718
0.988503
0.989712
0.990783
0.9911
0.990939
0.990413
0.989397
0.988083
0.987553
0.988011
0.98955
0.990712
0.991143
0.991237
0.991215
0.991154
0.991161
0.99113
0.990902
0.990377
0.989872
0.989644
0.989663
0.990184
0.992768
0.995452
0.996141
0.995892
0.994952
0.994902
0.995837
0.997837
0.998392
0.998269
0.997196
0.884647
0.876134
0.863383
0.860451
0.863683
0.884349
0.900657
0.90457
0.912436
0.944083
0.973521
0.979134
0.980234
0.980643
0.981159
0.982019
0.983716
0.985421
0.986048
0.9863
0.986366
0.986219
0.985831
0.985678
0.98528
0.984481
0.983829
0.982881
0.981899
0.981015
0.979684
0.97834
0.976755
0.975241
0.974357
0.974073
0.97407
0.973336
0.97242
0.971901
0.971838
0.973221
0.976962
0.981273
0.98576
0.988602
0.99003
0.990922
0.991338
0.991485
0.991577
0.991999
0.992839
0.9944
0.995955
0.996366
0.996393
0.996184
0.995593
0.994709
0.993691
0.992577
0.990942
0.990023
0.989725
0.989648
0.989935
0.990673
0.991451
0.991637
0.991714
0.991757
0.991713
0.991581
0.99155
0.991686
0.991828
0.99185
0.991855
0.992243
0.991937
0.990327
0.988672
0.987802
0.987502
0.987602
0.988133
0.989355
0.991878
0.995389
0.997871
0.999153
0.999703
0.999899
0.99996
0.999978
0.999978
0.999948
0.999816
0.999348
0.997762
0.993834
0.990284
0.988626
0.988391
0.98915
0.993217
0.996956
0.998596
0.999166
0.99928
0.99913
0.998054
0.996834
0.995248
0.992677
0.991257
0.991142
0.991881
0.992207
0.991436
0.990171
0.990102
0.991182
0.992635
0.993759
0.994767
0.995729
0.996711
0.997636
0.998113
0.998159
0.997914
0.996549
0.995028
0.994405
0.993878
0.993161
0.991804
0.990262
0.98836
0.987434
0.987159
0.987088
0.98725
0.987673
0.98803
0.988536
0.988313
0.988017
0.98754
0.986981
0.986739
0.986919
0.987745
0.989551
0.990718
0.991134
0.99115
0.991106
0.991106
0.99117
0.991443
0.9915
0.991288
0.990624
0.990108
0.989985
0.99021
0.991872
0.995075
0.99639
0.996411
0.995569
0.99505
0.995407
0.997235
0.998316
0.998379
0.997797
0.88077
0.870175
0.860131
0.860442
0.870497
0.889978
0.901091
0.912131
0.942366
0.971895
0.978656
0.980136
0.980739
0.981796
0.983926
0.987798
0.989603
0.990284
0.990552
0.990659
0.990684
0.990563
0.990438
0.990396
0.990335
0.990287
0.99018
0.989924
0.989174
0.987695
0.985309
0.981894
0.978136
0.9756
0.974407
0.974127
0.975535
0.976455
0.974631
0.973008
0.972642
0.973374
0.9768
0.98112
0.985495
0.988369
0.989859
0.990834
0.991244
0.991274
0.991046
0.990968
0.992047
0.993859
0.995755
0.996336
0.996403
0.996272
0.995791
0.99493
0.993825
0.99248
0.990662
0.989797
0.989453
0.989393
0.989613
0.990422
0.991062
0.991364
0.991677
0.991796
0.99171
0.991309
0.991108
0.991154
0.991411
0.99157
0.991596
0.991522
0.991183
0.989796
0.987983
0.987061
0.986783
0.986826
0.98707
0.987626
0.988611
0.99068
0.994873
0.997822
0.999199
0.999744
0.999925
0.999977
0.999989
0.999989
0.99997
0.999887
0.999583
0.998363
0.993906
0.989851
0.988414
0.988418
0.989953
0.994746
0.997759
0.999023
0.999433
0.999483
0.999264
0.998397
0.99732
0.994759
0.992115
0.99127
0.991443
0.992342
0.992697
0.992402
0.992217
0.992523
0.993371
0.994236
0.995107
0.995962
0.99683
0.997653
0.998139
0.998223
0.998067
0.996965
0.995226
0.994462
0.993872
0.992601
0.991343
0.990075
0.988229
0.987311
0.986981
0.986805
0.986798
0.98683
0.986808
0.986638
0.986349
0.986253
0.98623
0.98627
0.986419
0.986794
0.987946
0.9899
0.990956
0.991173
0.991128
0.991081
0.991101
0.991272
0.992013
0.992459
0.992443
0.992014
0.991025
0.990576
0.990601
0.99148
0.994524
0.996462
0.996762
0.99624
0.995289
0.995336
0.996584
0.998138
0.998436
0.998155
0.88376
0.868425
0.859673
0.860986
0.870825
0.889224
0.906234
0.934461
0.967854
0.977564
0.979904
0.980762
0.981934
0.985079
0.989279
0.990724
0.991181
0.991282
0.991289
0.991187
0.990991
0.990828
0.990698
0.990628
0.990702
0.991063
0.991542
0.99222
0.993077
0.994011
0.994515
0.994486
0.99216
0.986905
0.980323
0.976191
0.974963
0.978488
0.980182
0.976257
0.974223
0.973815
0.975715
0.980027
0.984549
0.987663
0.989214
0.990482
0.991067
0.991203
0.991006
0.990427
0.990252
0.991714
0.994673
0.995959
0.996242
0.99619
0.995799
0.994936
0.99374
0.991984
0.990376
0.989541
0.989196
0.989142
0.989281
0.989959
0.990745
0.991444
0.991855
0.991917
0.991744
0.991105
0.990723
0.990634
0.990691
0.990886
0.991
0.990994
0.990886
0.990371
0.988827
0.987572
0.987029
0.986978
0.987101
0.987502
0.988201
0.98927
0.991406
0.995527
0.998195
0.999382
0.999815
0.99995
0.999987
0.999995
0.999994
0.999982
0.999921
0.999626
0.998103
0.992863
0.989286
0.988423
0.988781
0.991748
0.996226
0.998476
0.999368
0.999629
0.999631
0.999395
0.998745
0.997328
0.993948
0.991793
0.991386
0.991798
0.992708
0.993266
0.993501
0.993771
0.994265
0.994889
0.995582
0.996293
0.997026
0.997731
0.998183
0.998286
0.998197
0.99746
0.995563
0.994603
0.993945
0.992552
0.990948
0.989674
0.988056
0.987087
0.986691
0.986479
0.986367
0.986271
0.986144
0.985975
0.985908
0.985918
0.986006
0.986153
0.986405
0.987089
0.989074
0.990884
0.991255
0.991211
0.991077
0.991077
0.991173
0.991544
0.992789
0.993864
0.99399
0.993772
0.99262
0.991565
0.991347
0.991714
0.993963
0.996398
0.99703
0.996794
0.995645
0.995408
0.996065
0.997864
0.998452
0.99836
0.891527
0.876287
0.86039
0.85994
0.867658
0.885708
0.912846
0.952511
0.974268
0.979042
0.980343
0.981517
0.984395
0.988624
0.990469
0.990981
0.991054
0.990684
0.989677
0.988484
0.987436
0.986409
0.985894
0.985716
0.985789
0.98634
0.987133
0.988068
0.98979
0.992116
0.994936
0.996885
0.997665
0.998023
0.996331
0.989235
0.980102
0.975562
0.979511
0.981876
0.980047
0.975946
0.97596
0.977362
0.981748
0.986151
0.988304
0.989603
0.990638
0.991081
0.991044
0.990596
0.989853
0.989815
0.991147
0.993923
0.995264
0.995583
0.995384
0.994597
0.992994
0.99126
0.989978
0.989251
0.988956
0.988914
0.989042
0.98969
0.990681
0.991505
0.991927
0.991992
0.991804
0.991116
0.99068
0.990531
0.990511
0.990532
0.99061
0.990672
0.990681
0.990646
0.990445
0.989692
0.988771
0.988466
0.988506
0.98864
0.988886
0.989398
0.990649
0.993328
0.996833
0.998818
0.999623
0.999893
0.999973
0.999993
0.999997
0.999996
0.999983
0.999895
0.999365
0.996379
0.99112
0.988894
0.988708
0.989817
0.994187
0.99753
0.999051
0.999619
0.99976
0.999738
0.999535
0.998899
0.996866
0.993226
0.991659
0.991528
0.992155
0.993158
0.993804
0.994328
0.994822
0.995364
0.995944
0.996535
0.997148
0.997755
0.998193
0.998334
0.998294
0.997846
0.996149
0.994894
0.994147
0.992654
0.990959
0.989593
0.988077
0.98709
0.986555
0.986257
0.986095
0.985986
0.985887
0.985845
0.985847
0.985886
0.986008
0.986236
0.986777
0.988295
0.990813
0.991375
0.99133
0.991111
0.990983
0.991086
0.991454
0.992255
0.993869
0.994877
0.995226
0.995192
0.994593
0.992999
0.992382
0.992455
0.993753
0.9963
0.997235
0.997171
0.996133
0.995518
0.995825
0.997457
0.998421
0.998478
0.899503
0.884899
0.86304
0.860415
0.865621
0.882673
0.912254
0.957546
0.975935
0.979448
0.980744
0.981981
0.984809
0.988783
0.990517
0.990884
0.99058
0.989228
0.987118
0.986034
0.985387
0.984326
0.983478
0.98304
0.983032
0.983957
0.984826
0.985535
0.986035
0.986859
0.988868
0.993927
0.997281
0.998723
0.999275
0.999265
0.996653
0.985605
0.977074
0.978181
0.982077
0.981633
0.978809
0.97796
0.979082
0.982481
0.986602
0.988654
0.98988
0.990792
0.991028
0.990929
0.990203
0.989532
0.989523
0.990321
0.991974
0.993219
0.993458
0.993057
0.991826
0.990507
0.98952
0.988951
0.988736
0.988717
0.98886
0.989566
0.990711
0.991604
0.992055
0.99213
0.991965
0.991275
0.990768
0.99057
0.990529
0.990536
0.990587
0.990664
0.990697
0.990746
0.990862
0.991038
0.99114
0.99106
0.991129
0.991342
0.991489
0.991431
0.991423
0.992739
0.995886
0.998269
0.999402
0.999821
0.999952
0.999988
0.999997
0.999998
0.999994
0.99996
0.99972
0.998268
0.993268
0.989875
0.989074
0.98948
0.992369
0.996428
0.998549
0.999465
0.999782
0.999842
0.999807
0.99959
0.998829
0.995966