/*--------------------------------*- C++ -*----------------------------------*\
  =========                 |
  \\      /  F ield         | OpenFOAM: The Open Source CFD Toolbox
   \\    /   O peration     | Website:  https://openfoam.org
    \\  /    A nd           | Version:  6
     \\/     M anipulation  |
\*---------------------------------------------------------------------------*/
FoamFile
{
    version     2.0;
    format      ascii;
    class       volVectorField;
    location    "0.2";
    object      U;
}
// * * * * * * * * * * * * * * * * * * * * * * * * * * * * * * * * * * * * * //

dimensions      [0 1 -1 0 0 0 0];

internalField   nonuniform List<vector> 
12225
(
(10.0592 0.120086 0)
(9.72896 0.118128 0)
(9.37719 0.0474059 0)
(9.00131 -0.0172393 0)
(8.68319 -0.0223524 0)
(8.41175 0.010703 0)
(8.13673 0.0459813 0)
(7.8511 0.0611598 0)
(7.58557 0.0552137 0)
(7.36471 0.0402832 0)
(7.18997 0.0287805 0)
(7.03656 0.0267075 0)
(6.88249 0.0351801 0)
(6.69572 0.0481235 0)
(6.50182 0.0582257 0)
(6.26613 0.0609885 0)
(6.06279 0.0621232 0)
(5.82532 0.0437127 0)
(9.91784 -0.0341491 0)
(9.99969 0.00338134 0)
(10.1634 0.0762948 0)
(10.1865 0.12984 0)
(10.1134 0.122356 0)
(10.057 0.0932608 0)
(10.0655 0.0802933 0)
(10.111 0.0807671 0)
(10.1473 0.079594 0)
(10.152 0.0732022 0)
(10.1294 0.0676814 0)
(10.0885 0.0667577 0)
(10.0393 0.0728289 0)
(9.98144 0.0808263 0)
(9.9228 0.0898421 0)
(9.85637 0.0989431 0)
(9.78956 0.106251 0)
(9.71544 0.128971 0)
(10.1595 0.0877122 0)
(10.1427 0.0992726 0)
(10.1143 0.079119 0)
(10.0486 0.0854249 0)
(10.0003 0.0918683 0)
(9.96576 0.0803892 0)
(9.94719 0.061445 0)
(9.95181 0.0477814 0)
(9.97313 0.0419957 0)
(10.0025 0.041883 0)
(10.0368 0.0465521 0)
(10.0711 0.0551693 0)
(10.1017 0.0689879 0)
(10.1261 0.0855288 0)
(10.1478 0.103372 0)
(10.167 0.118447 0)
(10.1858 0.132577 0)
(10.2092 0.157574 0)
(9.9492 0.112673 0)
(10.0228 0.0771322 0)
(9.97779 0.0870673 0)
(10.0351 0.0899185 0)
(10.1355 0.0727155 0)
(10.1712 0.0600671 0)
(10.1285 0.067662 0)
(10.055 0.0799117 0)
(9.99218 0.0793327 0)
(9.95865 0.0667909 0)
(9.95695 0.0549158 0)
(9.97965 0.0522443 0)
(10.0155 0.0601804 0)
(10.0558 0.0726006 0)
(10.0952 0.0835602 0)
(10.1312 0.0908534 0)
(10.1633 0.0977806 0)
(10.1938 0.111173 0)
(10.2152 -0.124952 0)
(10.1299 0.0348827 0)
(10.1135 0.0823732 0)
(10.1284 0.0863432 0)
(10.1479 0.0925571 0)
(10.1273 0.0976778 0)
(10.0883 0.0930572 0)
(10.0663 0.0771897 0)
(10.0656 0.0555025 0)
(10.0736 0.0362427 0)
(10.0832 0.0256861 0)
(10.0954 0.0246241 0)
(10.1139 0.0313358 0)
(10.1436 0.0428203 0)
(10.1832 0.0568734 0)
(10.2296 0.0724553 0)
(10.2743 0.0896914 0)
(10.3149 0.109493 0)
(9.94289 0.0601599 0)
(10.0062 0.10553 0)
(10.0203 0.0676991 0)
(9.99561 0.0438018 0)
(10.0015 0.0545733 0)
(10.0199 0.0800671 0)
(10.0266 0.0972708 0)
(10.0216 0.0964448 0)
(10.0159 0.0814634 0)
(10.0223 0.0626777 0)
(10.0475 0.0489192 0)
(10.0888 0.0429855 0)
(10.1347 0.0435656 0)
(10.1763 0.0483261 0)
(10.2047 0.0553767 0)
(10.2209 0.064683 0)
(10.2215 0.0763541 0)
(10.2191 0.0920768 0)
(10.029 0.0328141 0)
(10.1628 0.0794422 0)
(10.1827 0.133736 0)
(10.1387 0.111393 0)
(10.12 0.0757048 0)
(10.1343 0.0715245 0)
(10.1781 0.0869834 0)
(10.2248 0.0933116 0)
(10.233 0.077325 0)
(10.1865 0.0457878 0)
(10.1073 0.0135111 0)
(10.0329 -0.00751363 0)
(9.98822 -0.0120644 0)
(9.9796 -0.000780869 0)
(9.9974 0.0211508 0)
(10.0288 0.047502 0)
(10.0619 0.0733524 0)
(10.0904 0.0951042 0)
(10.2552 -0.13389 0)
(10.1504 0.0105874 0)
(10.075 0.0918935 0)
(9.99152 0.105384 0)
(9.93313 0.097987 0)
(9.89951 0.0812629 0)
(9.89582 0.0624162 0)
(9.92211 0.0534218 0)
(9.96412 0.0597788 0)
(10.0087 0.0743382 0)
(10.0511 0.0836286 0)
(10.0907 0.080152 0)
(10.127 0.0663411 0)
(10.1594 0.0514866 0)
(10.1872 0.0437279 0)
(10.2072 0.046226 0)
(10.2179 0.0590404 0)
(10.2167 0.0773313 0)
(9.89109 0.0230249 0)
(9.86132 0.129018 0)
(9.85856 0.139948 0)
(9.89995 0.0928544 0)
(9.96651 0.0609734 0)
(10.0151 0.0575076 0)
(10.0249 0.0698712 0)
(10.0075 0.0800411 0)
(9.99335 0.0749331 0)
(10.0069 0.0517 0)
(10.0503 0.0172794 0)
(10.1064 -0.0156377 0)
(10.1545 -0.0350288 0)
(10.1817 -0.0346718 0)
(10.1878 -0.0149238 0)
(10.1806 0.017817 0)
(10.1683 0.0560886 0)
(10.1627 0.0912661 0)
(10.0991 -0.0570434 0)
(9.97929 0.101323 0)
(10.0059 0.114033 0)
(9.97208 0.0866644 0)
(9.91364 0.0751646 0)
(9.89374 0.0809589 0)
(9.92573 0.0838819 0)
(9.98194 0.0687598 0)
(10.0295 0.0383249 0)
(10.0524 0.00732612 0)
(10.0509 -0.0109936 0)
(10.035 -0.0119784 0)
(10.0154 0.00123549 0)
(10.0026 0.0221697 0)
(10.0003 0.0437339 0)
(10.0106 0.0617625 0)
(10.0296 0.0744125 0)
(10.0565 0.0827301 0)
(10.0577 0.0791384 0)
(10.1251 0.174814 0)
(10.1215 0.180024 0)
(10.0802 0.157045 0)
(10.0212 0.0928179 0)
(9.98311 0.0257752 0)
(9.99074 -0.00174499 0)
(10.0376 0.0119658 0)
(10.0973 0.0405227 0)
(10.1459 0.05755 0)
(10.1721 0.051847 0)
(10.1766 0.0286409 0)
(10.1657 0.00216264 0)
(10.1482 -0.0141497 0)
(10.1313 -0.0126851 0)
(10.1201 0.00467542 0)
(10.1144 0.032517 0)
(10.116 0.0619252 0)
(9.84781 -0.0769085 0)
(10.0866 0.0542597 0)
(10.1899 0.100872 0)
(10.1416 0.141417 0)
(10.0828 0.148723 0)
(10.0446 0.118801 0)
(10.0162 0.0701009 0)
(10.0025 0.0234134 0)
(10.0151 -0.0084857 0)
(10.0544 -0.0211753 0)
(10.1051 -0.0157434 0)
(10.145 0.00303541 0)
(10.1561 0.0260417 0)
(10.1376 0.0450582 0)
(10.0982 0.0551229 0)
(10.0597 0.0574636 0)
(10.0287 0.0555374 0)
(10.0214 0.0534954 0)
(10.211 0.191513 0)
(10.0915 0.136542 0)
(9.93776 0.141166 0)
(9.93858 0.11601 0)
(10.0367 0.065594 0)
(10.1149 0.0290473 0)
(10.1348 0.0172842 0)
(10.1276 0.013887 0)
(10.1286 0.00105627 0)
(10.1481 -0.0229127 0)
(10.1787 -0.0452628 0)
(10.2085 -0.0498978 0)
(10.2269 -0.0315626 0)
(10.2254 0.00362478 0)
(10.2026 0.0427406 0)
(10.1613 0.0757596 0)
(10.1076 0.098605 0)
(10.0524 0.108416 0)
(10.1051 -0.0232541 0)
(10.1408 0.130362 0)
(10.1363 0.189199 0)
(10.1404 0.167771 0)
(10.1409 0.137234 0)
(10.1432 0.102568 0)
(10.1823 0.0571899 0)
(10.2638 0.0125727 0)
(10.3434 -0.0139292 0)
(10.3618 -0.0139534 0)
(10.2921 0.00834058 0)
(10.1566 0.041833 0)
(10.0048 0.0742919 0)
(9.87933 0.0974628 0)
(9.80393 0.108103 0)
(9.77899 0.109525 0)
(9.79908 0.102821 0)
(9.8485 0.0955442 0)
(9.90567 0.253367 0)
(9.78124 0.284582 0)
(9.70664 0.175158 0)
(9.69259 0.0777562 0)
(9.74644 0.0270614 0)
(9.80629 -0.0195282 0)
(9.84583 -0.0771575 0)
(9.87938 -0.113661 0)
(9.92081 -0.096717 0)
(9.96978 -0.0280776 0)
(10.0185 0.0603429 0)
(10.061 0.132897 0)
(10.0949 0.169697 0)
(10.1206 0.169833 0)
(10.1374 0.144259 0)
(10.1456 0.105133 0)
(10.1458 0.063186 0)
(10.1374 0.0234136 0)
(10.1229 0.198484 0)
(10.0766 0.215671 0)
(10.1345 0.140266 0)
(10.1079 0.0895979 0)
(10.1043 0.0643603 0)
(10.1211 0.0479659 0)
(10.115 0.0213533 0)
(10.0836 -0.0161351 0)
(10.049 -0.047644 0)
(10.0296 -0.0566097 0)
(10.0307 -0.0405696 0)
(10.0457 -0.00993609 0)
(10.0641 0.0213685 0)
(10.0768 0.0455558 0)
(10.0828 0.0629107 0)
(10.0831 0.0766531 0)
(10.082 0.0896142 0)
(10.0809 0.101379 0)
(10.0908 0.206526 0)
(9.98222 0.357553 0)
(9.96852 0.231442 0)
(10.0338 0.081007 0)
(10.0878 -0.00132336 0)
(10.1098 -0.040525 0)
(10.1126 -0.0651138 0)
(10.106 -0.0785209 0)
(10.088 -0.0719953 0)
(10.0602 -0.0390172 0)
(10.0337 0.0164072 0)
(10.0178 0.0790217 0)
(10.0146 0.129997 0)
(10.0206 0.155609 0)
(10.0335 0.151547 0)
(10.0506 0.122916 0)
(10.072 0.07807 0)
(10.095 0.0283087 0)
(9.82896 0.0665395 0)
(9.91222 0.174614 0)
(9.97197 0.108052 0)
(10.0148 0.0526554 0)
(10.009 0.0309744 0)
(9.95837 0.0233348 0)
(9.90338 0.0220017 0)
(9.86467 0.023416 0)
(9.83918 0.0251777 0)
(9.82915 0.0257226 0)
(9.845 0.0232312 0)
(9.89078 0.0162889 0)
(9.95828 0.00553308 0)
(10.0333 -0.00604015 0)
(10.1022 -0.0128263 0)
(10.1562 -0.0124209 0)
(10.1915 -0.00287508 0)
(10.2084 0.0106415 0)
(9.85379 0.143713 0)
(9.78172 0.0558693 0)
(9.851 -0.0529552 0)
(9.98769 -0.0335817 0)
(10.073 0.0432987 0)
(10.0972 0.099765 0)
(10.0924 0.111856 0)
(10.0721 0.0844612 0)
(10.0381 0.0309016 0)
(9.9998 -0.0332463 0)
(9.97154 -0.0916851 0)
(9.96216 -0.130315 0)
(9.9701 -0.142033 0)
(9.9885 -0.128055 0)
(10.0096 -0.0973434 0)
(10.0289 -0.0626203 0)
(10.0438 -0.0341974 0)
(10.0553 -0.0212049 0)
(9.68047 -0.123716 0)
(9.75388 -0.155798 0)
(9.72818 -0.153002 0)
(9.73738 -0.131116 0)
(9.78236 -0.0987787 0)
(9.83632 -0.0489409 0)
(9.89056 0.0132674 0)
(9.94037 0.069301 0)
(9.97251 0.100367 0)
(9.97691 0.0956987 0)
(9.95906 0.0564486 0)
(9.93572 -0.00280375 0)
(9.92263 -0.0605429 0)
(9.92712 -0.099245 0)
(9.94831 -0.110205 0)
(9.97878 -0.0984272 0)
(10.0103 -0.0715062 0)
(10.0337 -0.043154 0)
(10.0731 -0.027724 0)
(9.9282 -0.0206426 0)
(9.89501 -0.0633214 0)
(9.91583 -0.0953041 0)
(9.95939 -0.082093 0)
(9.99289 -0.0438442 0)
(9.97622 -0.000199292 0)
(9.9277 0.0377757 0)
(9.89312 0.059425 0)
(9.89075 0.0536268 0)
(9.90884 0.0150331 0)
(9.92866 -0.0488284 0)
(9.93902 -0.119228 0)
(9.93795 -0.174625 0)
(9.9301 -0.198212 0)
(9.92228 -0.186786 0)
(9.91891 -0.145259 0)
(9.92349 -0.0876311 0)
(10.3028 -0.0770487 0)
(10.147 -0.0595413 0)
(10.0694 -0.153077 0)
(10.0085 -0.221311 0)
(9.93845 -0.174826 0)
(9.91712 -0.0542453 0)
(9.95562 0.05906 0)
(10.0222 0.11166 0)
(10.0861 0.100971 0)
(10.1271 0.0568886 0)
(10.1362 0.00977836 0)
(10.1167 -0.0259834 0)
(10.0789 -0.0499991 0)
(10.0327 -0.0659702 0)
(9.98688 -0.0754838 0)
(9.94875 -0.0796656 0)
(9.92367 -0.0789061 0)
(9.91386 -0.076011 0)
(10.0956 0.0583278 0)
(10.2361 0.0519375 0)
(10.204 0.0566476 0)
(10.0635 0.0212301 0)
(9.91731 -0.0379118 0)
(9.88775 -0.0855809 0)
(9.9617 -0.0924475 0)
(10.0513 -0.0619486 0)
(10.1024 -0.0218923 0)
(10.1133 0.00267986 0)
(10.1067 0.00217797 0)
(10.1053 -0.0196093 0)
(10.1194 -0.0514885 0)
(10.1462 -0.0811682 0)
(10.1765 -0.0984375 0)
(10.2002 -0.101234 0)
(10.2124 -0.0906679 0)
(10.21 -0.0738802 0)
(9.98457 0.00672548 0)
(9.909 -0.0905886 0)
(9.95497 -0.0213836 0)
(10.0313 0.011925 0)
(10.033 -0.0303604 0)
(9.99325 -0.0822056 0)
(9.96242 -0.0883707 0)
(9.95432 -0.0435106 0)
(9.96737 0.0169493 0)
(9.99373 0.0520379 0)
(10.0189 0.0436016 0)
(10.0286 0.000265733 0)
(10.0182 -0.0551328 0)
(9.9937 -0.100452 0)
(9.96681 -0.122394 0)
(9.94849 -0.120137 0)
(9.94339 -0.0992088 0)
(9.9546 -0.070214 0)
(10.0643 -0.01137 0)
(9.96012 -0.0373636 0)
(9.92173 0.0149965 0)
(9.92054 0.0237277 0)
(9.91185 -0.0118046 0)
(9.91153 -0.0462848 0)
(9.91879 -0.0579821 0)
(9.92892 -0.0522363 0)
(9.94801 -0.0433486 0)
(9.97613 -0.0392701 0)
(9.99968 -0.0387575 0)
(10.0046 -0.0388479 0)
(9.99006 -0.0402536 0)
(9.9655 -0.0457136 0)
(9.94438 -0.0553316 0)
(9.93386 -0.0665357 0)
(9.93749 -0.0758583 0)
(9.95191 -0.0807522 0)
(9.87593 -0.0768788 0)
(9.86477 0.0118677 0)
(9.9359 0.022011 0)
(10.0604 -0.00300021 0)
(10.1128 -0.0476828 0)
(10.0991 -0.0838247 0)
(10.0696 -0.0910167 0)
(10.0431 -0.0688064 0)
(10.0163 -0.0318961 0)
(9.98641 0.000874759 0)
(9.95691 0.0153636 0)
(9.93494 0.0058269 0)
(9.92726 -0.0243767 0)
(9.93575 -0.065945 0)
(9.95775 -0.106496 0)
(9.98835 -0.135948 0)
(10.0228 -0.149365 0)
(10.0586 -0.144521 0)
(10.103 -0.069467 0)
(9.97969 -0.133122 0)
(9.90047 -0.081885 0)
(9.86728 -0.0388418 0)
(9.86287 -0.0353586 0)
(9.88947 -0.0479468 0)
(9.93314 -0.0498985 0)
(9.9783 -0.034809 0)
(10.0229 -0.012431 0)
(10.0672 0.00493292 0)
(10.1049 0.0100691 0)
(10.1266 0.00163325 0)
(10.1263 -0.0174138 0)
(10.1043 -0.0422455 0)
(10.0649 -0.0674764 0)
(10.0169 -0.0882849 0)
(9.96835 -0.102392 0)
(9.92885 -0.10729 0)
(9.90072 -0.0456213 0)
(9.76068 0.0391115 0)
(9.75378 0.0394633 0)
(9.86444 -0.0122129 0)
(9.98271 -0.0579314 0)
(10.0542 -0.0812225 0)
(10.0648 -0.0853237 0)
(10.0246 -0.0756214 0)
(9.96609 -0.0576809 0)
(9.9227 -0.0395997 0)
(9.90829 -0.0296533 0)
(9.91733 -0.032051 0)
(9.93801 -0.04536 0)
(9.96053 -0.0654621 0)
(9.97892 -0.0872878 0)
(9.99089 -0.10625 0)
(9.99716 -0.119463 0)
(9.99857 -0.123684 0)
(9.78778 -0.0222272 0)
(9.96339 -0.0220683 0)
(10.1684 -0.0437981 0)
(10.2527 -0.0838418 0)
(10.2238 -0.114601 0)
(10.1476 -0.113052 0)
(10.0751 -0.0806776 0)
(10.0343 -0.0372005 0)
(10.0408 -0.00174162 0)
(10.0913 0.0166747 0)
(10.1629 0.0184757 0)
(10.2269 0.00867987 0)
(10.2638 -0.00736047 0)
(10.2691 -0.0261377 0)
(10.247 -0.0456185 0)
(10.2083 -0.0638258 0)
(10.1604 -0.0790338 0)
(10.1119 -0.0887733 0)
(10.106 -0.0762432 0)
(9.79919 -0.113626 0)
(9.57101 -0.0764093 0)
(9.37521 -0.0518256 0)
(9.13775 -0.0388813 0)
(8.90741 -0.027268 0)
(8.73017 -0.022187 0)
(8.60435 -0.0303154 0)
(8.50895 -0.0490831 0)
(8.42393 -0.0687238 0)
(8.33617 -0.0803812 0)
(8.24189 -0.0818804 0)
(8.14189 -0.0772558 0)
(8.03626 -0.0726111 0)
(7.91887 -0.071391 0)
(7.7878 -0.0729214 0)
(7.64142 -0.0741461 0)
(7.49124 -0.0717008 0)
(0.0194753 -0.0524137 -7.19127e-20)
(0.061263 -0.0729827 7.13869e-20)
(0.0880683 -0.0561495 0)
(0.0951841 -0.0476378 0)
(0.0752302 -0.0542872 0)
(0.0296975 0.014249 -6.9301e-20)
(-0.0960853 0.117268 0)
(-0.227783 0.0934092 0)
(-0.295614 0.0514414 0)
(-0.346076 0.0280696 0)
(-0.370636 0.00214169 6.66677e-20)
(-0.37598 -0.0178026 0)
(-0.366614 -0.033864 0)
(-0.345207 -0.0465408 0)
(-0.31472 -0.0583117 0)
(-0.274961 -0.0699336 6.41245e-20)
(-0.225408 -0.0804573 0)
(-0.166104 -0.0881876 0)
(-0.0986268 -0.0930313 0)
(-0.0246891 -0.0961835 0)
(0.0552736 -0.0987986 0)
(0.141013 -0.100794 0)
(0.231604 -0.102259 0)
(0.326739 -0.10428 6.00278e-20)
(0.427068 -0.107501 -5.95066e-20)
(0.533603 -0.1116 5.8986e-20)
(0.64668 -0.115349 5.84662e-20)
(0.764938 -0.117522 0)
(0.885604 -0.116711 0)
(1.0041 -0.11147 -5.69188e-20)
(1.11415 -0.1019 -5.64102e-20)
(1.21061 -0.0883953 0)
(1.29127 -0.071364 0)
(1.35571 -0.0544408 -5.49086e-20)
(1.40533 -0.0411717 0)
(1.44247 -0.031807 0)
(1.47166 -0.0296284 5.34301e-20)
(1.50134 -0.0372469 0)
(1.53997 -0.04949 5.24447e-20)
(1.5943 -0.0605818 1.03899e-19)
(1.66117 -0.0675608 0)
(1.72806 -0.0488497 0)
(1.77621 0.0107209 0)
(1.74172 0.0965489 0)
(1.56215 0.244625 0)
(1.28976 0.315961 9.80764e-20)
(1.08057 0.114542 9.71481e-20)
(0.985867 -0.0331903 9.61971e-20)
(0.771909 0.103723 0)
(0.448121 0.232044 -9.43533e-20)
(0.528818 0.137282 0)
(0.668576 -0.131838 9.2302e-20)
(1.06136 -0.648971 9.1326e-20)
(1.38582 -0.455838 0)
(0.651496 0.405031 0)
(-0.466062 0.689593 0)
(-1.30537 0.630316 8.83687e-20)
(-2.09579 0.567375 0)
(-2.8346 0.528994 0)
(-3.54584 0.496543 0)
(-4.22551 0.472341 0)
(-4.88596 0.454166 0)
(-5.53254 0.443627 0)
(-6.17144 0.435639 0)
(-6.80083 0.425331 0)
(-7.41352 0.407638 -8.47728e-20)
(-7.99647 0.380084 0)
(-8.53417 0.341907 0)
(-9.01064 0.294176 8.3766e-20)
(-9.41171 0.239068 8.33159e-20)
(-9.72648 0.179651 0)
(-9.94828 0.119763 -8.21371e-20)
(-10.0746 0.0634015 8.1392e-20)
(-10.1057 0.0133305 0)
(-10.0499 -0.0305309 -7.95842e-20)
(-9.92838 -0.0694292 0)
(-9.74048 -0.102909 0)
(-9.49978 -0.131263 7.62686e-20)
(-9.21039 -0.15535 0)
(-8.87996 -0.175441 -7.38168e-20)
(-8.51264 -0.192464 0)
(-8.11265 -0.206923 7.12691e-20)
(-7.68289 -0.219222 6.99794e-20)
(-7.22626 -0.229529 6.86893e-20)
(-6.74547 -0.237825 1.34814e-19)
(-6.24378 -0.243894 -1.32282e-19)
(-5.72497 -0.24747 0)
(-5.19357 -0.248255 0)
(-4.65457 -0.246039 0)
(-4.11296 -0.240796 -1.22812e-19)
(-3.57335 -0.232847 -1.20675e-19)
(-3.0399 -0.222936 1.18644e-19)
(-2.51686 -0.21206 0)
(-2.00886 -0.200892 -1.14899e-19)
(-1.52019 -0.189231 -1.13177e-19)
(-1.05298 -0.176145 -1.11547e-19)
(-0.606644 -0.16118 0)
(-0.180715 -0.144714 0)
(0.220422 -0.12722 0)
(0.587464 -0.109508 -1.0558e-19)
(0.910624 -0.0947013 0)
(1.18508 -0.08822 0)
(1.41494 -0.0936979 1.01537e-19)
(1.61345 -0.108843 0)
(1.79854 -0.126432 0)
(1.98459 -0.139026 9.78127e-20)
(2.17548 -0.142829 0)
(2.36501 -0.139066 0)
(2.54541 -0.132028 -9.42844e-20)
(2.71616 -0.12693 -9.31375e-20)
(2.88626 -0.133357 0)
(3.07733 -0.155415 9.08536e-20)
(3.31633 -0.162382 0)
(3.58877 -0.130864 -8.86006e-20)
(3.84154 -0.134224 0)
(4.10594 -0.197147 -8.64575e-20)
(4.43131 -0.155432 -8.54168e-20)
(4.66217 -0.0491143 0)
(4.76362 -0.0897041 0)
(4.8271 0.043176 0)
(4.4087 0.454445 0)
(3.3681 0.442181 0)
(2.43154 -0.00905263 0)
(1.95619 -0.331933 0)
(1.94616 -0.444178 -7.78061e-20)
(2.39385 -0.430223 7.64533e-20)
(3.0661 -0.313201 0)
(3.61355 -0.169024 0)
(3.88289 -0.0673789 0)
(3.92751 -0.00694098 0)
(3.82572 0.041863 1.43616e-19)
(3.58478 0.0834132 0)
(3.18665 0.105129 -1.4048e-19)
(2.6187 0.143095 1.39015e-19)
(1.80777 0.246778 0)
(0.73339 0.351056 0)
(-0.396755 0.374206 0)
(-1.45033 0.357827 -1.36114e-19)
(-2.46563 0.344559 -1.36034e-19)
(-3.4656 0.338422 0)
(-4.4598 0.334883 -1.36648e-19)
(-5.44639 0.329067 -1.37275e-19)
(-6.4133 0.317685 1.38048e-19)
(-7.34057 0.298791 0)
(-8.20379 0.271796 0)
(-8.97714 0.237159 1.40126e-19)
(-9.63576 0.196243 0)
(-10.1582 0.150579 0)
(-10.5266 0.100965 0)
(-10.7241 0.049241 0)
(-10.7365 -0.00241666 -1.33637e-19)
(-10.5704 -0.0551431 -1.29807e-19)
(-10.2133 -0.109055 0)
(-9.66406 -0.162116 -1.19624e-19)
(-8.92645 -0.212221 0)
(-8.01737 -0.255652 0)
(-6.96575 -0.288889 -1.0088e-19)
(-5.81014 -0.30943 0)
(-4.5935 -0.316512 -8.94665e-20)
(-3.35761 -0.31121 0)
(-2.13894 -0.295814 0)
(-0.966296 -0.273036 -7.77822e-20)
(0.137797 -0.245378 0)
(1.15373 -0.215574 -7.32396e-20)
(2.06783 -0.184845 0)
(2.86922 -0.154871 0)
(3.55481 -0.129023 0)
(4.1299 -0.106643 6.81722e-20)
(4.59762 -0.0779538 0)
(4.93895 -0.0234126 -6.61115e-20)
(5.05497 0.0584646 0)
(4.88516 0.121356 0)
(4.50399 0.116188 0)
(4.08694 0.0517288 0)
(3.77183 -0.0211513 0)
(3.58236 -0.0556065 0)
(3.49107 0.00370298 0)
(3.21832 0.0849159 1.11587e-19)
(2.85922 0.0479853 0)
(2.54594 -0.0590642 0)
(0.0164794 -0.129493 2.15775e-19)
(0.030433 -0.134241 -2.14238e-19)
(0.0266006 -0.040551 0)
(-0.0212726 0.102452 1.40738e-19)
(-0.0980513 0.206815 0)
(-0.156343 0.261571 6.92697e-20)
(-0.222836 0.264612 -1.37515e-19)
(-0.272646 0.201439 -1.36469e-19)
(-0.294656 0.142226 0)
(-0.317902 0.08555 -1.34404e-19)
(-0.328857 0.0299068 -6.66734e-20)
(-0.335817 -0.0177709 0)
(-0.331999 -0.0594117 0)
(-0.317417 -0.0964634 0)
(-0.2894 -0.130633 0)
(-0.248321 -0.161778 -6.41242e-20)
(-0.194527 -0.188469 0)
(-0.129948 -0.20912 1.26272e-19)
(-0.0574985 -0.224533 0)
(0.0191347 -0.23672 0)
(0.09725 -0.247434 -1.23199e-19)
(0.176063 -0.256686 0)
(0.255914 -0.264919 1.21114e-19)
(0.337375 -0.27397 -6.0015e-20)
(0.421437 -0.28578 5.9496e-20)
(0.51008 -0.299942 -5.89774e-20)
(0.605387 -0.313189 -5.84594e-20)
(0.707995 -0.321734 0)
(0.817068 -0.321157 0)
(0.930168 -0.306861 5.69162e-20)
(1.04145 -0.278702 -5.64447e-20)
(1.14255 -0.241868 0)
(1.22686 -0.201288 0)
(1.28768 -0.157621 5.49146e-20)
(1.32089 -0.111993 0)
(1.3327 -0.0737239 0)
(1.34061 -0.0581783 -5.34466e-20)
(1.36217 -0.0703783 0)
(1.40594 -0.106701 5.24942e-20)
(1.47998 -0.152126 -1.03912e-19)
(1.58892 -0.166201 0)
(1.70251 -0.141001 0)
(1.78503 -0.0670172 -2.0197e-19)
(1.85285 0.138403 -1.99978e-19)
(1.92377 0.370363 -1.97935e-19)
(1.9449 0.423772 9.80211e-20)
(1.79489 0.344471 -9.69677e-20)
(1.47705 0.362335 -2.88206e-19)
(1.08115 0.660971 1.90289e-19)
(1.09483 0.578995 9.42233e-20)
(1.76308 -0.352294 0)
(1.51157 -0.508286 -9.22935e-20)
(-0.113414 0.753775 9.13929e-20)
(-1.25902 1.38736 0)
(-2.23775 1.62156 0)
(-3.03524 1.60065 0)
(-3.70737 1.51063 -8.78096e-20)
(-4.33081 1.40936 0)
(-4.91954 1.32548 1.74162e-19)
(-5.47718 1.25343 0)
(-6.01965 1.20048 1.72525e-19)
(-6.54838 1.16211 0)
(-7.07058 1.13436 -1.71224e-19)
(-7.58212 1.10755 0)
(-8.08022 1.07214 1.70155e-19)
(-8.55633 1.0191 -8.51448e-20)
(-9.00247 0.942955 0)
(-9.40774 0.84227 -1.68576e-19)
(-9.76093 0.719031 -8.36e-20)
(-10.0508 0.577661 -8.31795e-20)
(-10.2689 0.424468 0)
(-10.4104 0.267033 -8.26708e-20)
(-10.4754 0.113123 -8.13309e-20)
(-10.4688 -0.0306806 0)
(-10.3932 -0.16071 7.95272e-20)
(-10.2427 -0.275737 -1.57364e-19)
(-10.0347 -0.374878 0)
(-9.77217 -0.45911 -7.62009e-20)
(-9.46563 -0.530367 0)
(-9.11949 -0.590781 2.21527e-19)
(-8.73909 -0.642727 0)
(-8.32735 -0.688095 -2.13861e-19)
(-7.88696 -0.728214 -6.99077e-20)
(-7.41985 -0.763675 6.88683e-20)
(-6.92833 -0.794405 1.35149e-19)
(-6.41508 -0.819799 -1.32588e-19)
(-5.88365 -0.838955 0)
(-5.3384 -0.850896 0)
(-4.78448 -0.85479 0)
(-4.22743 -0.850148 3.6836e-19)
(-3.67276 -0.837057 1.20559e-19)
(-3.1256 -0.816439 -1.18535e-19)
(-2.59056 -0.790097 0)
(-2.07189 -0.760137 -1.14974e-19)
(-1.57354 -0.727952 1.13091e-19)
(-1.09853 -0.693581 1.11468e-19)
(-0.647582 -0.656194 0)
(-0.218222 -0.614259 0)
(0.193576 -0.565189 0)
(0.589331 -0.505919 1.05529e-19)
(0.966304 -0.43576 0)
(1.318 -0.359901 -2.05608e-19)
(1.63747 -0.290025 -3.04459e-19)
(1.92295 -0.23967 2.00432e-19)
(2.18157 -0.215335 0)
(2.42501 -0.210415 9.77561e-20)
(2.65911 -0.209666 0)
(2.87782 -0.201927 1.90743e-19)
(3.06748 -0.189275 -9.4237e-20)
(3.22303 -0.18192 -9.30973e-20)
(3.36216 -0.188941 0)
(3.50884 -0.222371 -2.72391e-19)
(3.68203 -0.282338 1.79338e-19)
(3.92497 -0.32108 8.85321e-20)
(4.25016 -0.307096 0)
(4.55232 -0.307853 8.63843e-20)
(4.80595 -0.323093 2.56099e-19)
(5.13859 -0.235441 0)
(5.4556 -0.0996859 1.66905e-19)
(5.62554 0.0618362 1.64966e-19)
(5.6991 0.447726 1.62766e-19)
(5.61502 0.906292 0)
(5.20988 1.05012 0)
(4.45629 0.654033 0)
(3.80895 -0.0776946 -7.74089e-20)
(3.61748 -0.588505 -7.63146e-20)
(3.76768 -0.634509 0)
(3.92047 -0.393495 -1.48431e-19)
(3.8261 -0.113099 -1.46842e-19)
(3.49819 0.0971401 0)
(3.03597 0.251927 -1.43679e-19)
(2.46112 0.408826 -2.84359e-19)
(1.7045 0.602456 1.40608e-19)
(0.698168 0.814581 1.39546e-19)
(-0.482138 0.977725 0)
(-1.62472 1.03613 0)
(-2.61856 1.01043 0)
(-3.51831 0.962952 1.35676e-19)
(-4.36798 0.925374 -1.36335e-19)
(-5.18565 0.89993 -2.72379e-19)
(-5.98136 0.879139 1.36312e-19)
(-6.75665 0.853909 -1.37661e-19)
(-7.50652 0.816884 -1.37783e-19)
(-8.2196 0.762991 0)
(-8.87968 0.689682 0)
(-9.46776 0.59663 1.409e-19)
(-9.96457 0.485469 0)
(-10.3523 0.359095 0)
(-10.6155 0.220412 -2.78023e-19)
(-10.7434 0.0730023 0)
(-10.7243 -0.0796437 -1.34608e-19)
(-10.5277 -0.237435 1.29786e-19)
(-10.1463 -0.399141 0)
(-9.57185 -0.560116 -1.20496e-19)
(-8.809 -0.712723 0)
(-7.87381 -0.84608 0)
(-6.79577 -0.949303 1.00795e-19)
(-5.61477 -1.0146 -1.90142e-19)
(-4.37541 -1.03953 8.93851e-20)
(-3.12067 -1.02725 0)
(-1.88736 -0.984711 0)
(-0.703706 -0.920241 -7.80337e-20)
(0.40916 -0.841714 0)
(1.43462 -0.756365 -7.34241e-20)
(2.36238 -0.667641 0)
(3.18874 -0.577017 0)
(3.91338 -0.486775 0)
(4.53564 -0.399431 -6.81224e-20)
(5.03924 -0.313158 0)
(5.42788 -0.209798 6.60705e-20)
(5.75563 -0.0669975 0)
(6.00678 0.0975591 0)
(6.10651 0.230827 -1.2518e-19)
(6.01932 0.280889 1.22663e-19)
(5.74948 0.256799 0)
(5.34354 0.196887 0)
(4.93129 0.151328 0)
(4.57078 0.186709 -3.34408e-19)
(4.34457 0.26745 0)
(4.03983 0.227754 2.12828e-19)
(0.00286062 -0.118366 5.47356e-23)
(-0.0258605 -0.0317947 2.85723e-19)
(-0.0625372 0.10393 0)
(-0.0948574 0.226598 -2.81392e-19)
(-0.128151 0.310369 0)
(-0.143517 0.338404 0)
(-0.152639 0.314944 -6.22784e-23)
(-0.154783 0.251692 1.36488e-19)
(-0.159868 0.186778 1.35532e-19)
(-0.170423 0.118297 1.34461e-19)
(-0.176729 0.0485859 0)
(-0.17914 -0.0178997 0)
(-0.17174 -0.0823918 -1.31492e-19)
(-0.152274 -0.14553 -2.60921e-19)
(-0.119962 -0.205353 2.58866e-19)
(-0.0735071 -0.259109 0)
(-0.013551 -0.303235 2.54771e-19)
(0.0571146 -0.335357 -1.2627e-19)
(0.134397 -0.355983 0)
(0.213366 -0.36851 2.48454e-19)
(0.28963 -0.3764 1.23112e-19)
(0.361068 -0.381421 -2.44278e-19)
(0.427853 -0.385774 -1.21036e-19)
(0.491141 -0.39276 0)
(0.552475 -0.405533 2.38095e-19)
(0.613374 -0.424647 2.36041e-19)
(0.675557 -0.446095 0)
(0.740952 -0.463506 2.31933e-19)
(0.810718 -0.469807 0)
(0.884944 -0.455617 2.27838e-19)
(0.962495 -0.414483 1.1285e-19)
(1.03873 -0.349269 0)
(1.1071 -0.269926 0)
(1.16221 -0.191907 0)
(1.20547 -0.1327 0)
(1.24148 -0.110325 0)
(1.2734 -0.130188 0)
(1.31057 -0.182213 2.11996e-19)
(1.36642 -0.256193 -3.14961e-19)
(1.44121 -0.338231 0)
(1.52552 -0.380259 0)
(1.62612 -0.31105 0)
(1.73626 -0.168444 -1.57523e-22)
(1.79834 -0.012775 2.00029e-19)
(1.77908 0.223299 3.96148e-19)
(1.72535 0.522496 -3.92116e-19)
(1.60106 0.845967 -1.94152e-19)
(1.38529 1.09653 1.92071e-19)
(1.52832 0.651371 -7.99189e-25)
(1.83408 -0.299449 1.88209e-19)
(0.791263 0.306312 0)
(-0.833105 1.67031 1.84513e-19)
(-2.04468 2.37485 3.72595e-22)
(-2.83969 2.51859 0)
(-3.45927 2.5203 0)
(-3.91887 2.4086 -1.77971e-19)
(-4.35979 2.27165 0)
(-4.76102 2.13118 0)
(-5.18018 2.01372 1.75765e-19)
(-5.599 1.92201 3.47949e-19)
(-6.04251 1.85839 -1.72351e-19)
(-6.50034 1.81582 0)
(-6.98104 1.78328 1.71089e-19)
(-7.4769 1.7469 0)
(-7.98649 1.6938 1.7181e-19)
(-8.49962 1.61433 1.69528e-19)
(-9.00224 1.50193 -3.40033e-19)
(-9.4719 1.35203 -1.70544e-19)
(-9.88499 1.16333 0)
(-10.2203 0.940244 3.36e-19)
(-10.4635 0.692491 0)
(-10.6083 0.432616 4.95934e-19)
(-10.6557 0.173838 3.28203e-19)
(-10.613 -0.071367 3.24528e-19)
(-10.4907 -0.292821 -3.20362e-19)
(-10.3016 -0.484819 4.73193e-19)
(-10.0574 -0.647259 0)
(-9.76854 -0.782759 0)
(-9.44305 -0.89553 -3.01394e-19)
(-9.08651 -0.990525 -4.44025e-19)
(-8.70259 -1.07199 0)
(-8.2932 -1.14347 1.42568e-19)
(-7.85928 -1.20715 0)
(-7.40143 -1.26384 -4.12981e-19)
(-6.92053 -1.31306 7.975e-22)
(-6.41822 -1.35344 -7.48325e-22)
(-5.89716 -1.38309 2.60194e-19)
(-5.36104 -1.40017 0)
(-4.81436 -1.40338 -2.50499e-19)
(-4.26203 -1.39232 4.9048e-22)
(-3.70904 -1.36744 0)
(-3.16028 -1.32996 0)
(-2.6206 -1.28183 0)
(-2.09489 -1.22575 2.2959e-19)
(-1.58838 -1.16507 0)
(-1.10673 -1.10291 0)
(-0.655392 -1.0412 0)
(-0.237645 -0.979756 0)
(0.14793 -0.915722 0)
(0.506174 -0.84497 2.11177e-19)
(0.840832 -0.765706 0)
(1.1509 -0.683113 2.05566e-19)
(1.43392 -0.609839 2.02962e-19)
(1.69436 -0.559715 -2.00422e-19)
(1.94536 -0.536565 0)
(2.19705 -0.526547 -1.95482e-19)
(2.44237 -0.505804 0)
(2.6573 -0.459075 -1.90754e-19)
(2.8158 -0.393313 1.88469e-19)
(2.91169 -0.339738 5.58729e-19)
(2.98319 -0.336481 0)
(3.09716 -0.396308 5.45136e-19)
(3.28628 -0.49305 1.79539e-19)
(3.53231 -0.573921 0)
(3.81572 -0.602882 3.5012e-19)
(4.11358 -0.615999 3.45897e-19)
(4.40722 -0.627881 -5.12562e-19)
(4.76847 -0.528582 0)
(5.18472 -0.311125 -1.66906e-19)
(5.45523 -0.0738922 -1.64995e-19)
(5.64003 0.324497 -4.89391e-19)
(5.89001 0.95696 0)
(5.87482 1.40343 0)
(5.39017 1.17103 0)
(4.77176 0.37512 -1.541e-19)
(4.21566 -0.299322 0)
(3.73429 -0.400439 0)
(3.24382 -0.103007 1.48545e-19)
(2.65992 0.247012 1.46973e-19)
(2.02189 0.5071 0)
(1.36926 0.719905 0)
(0.668738 0.965131 2.84753e-19)
(-0.130609 1.25007 0)
(-1.00581 1.50014 -2.78498e-19)
(-1.8385 1.63142 -2.76586e-19)
(-2.54808 1.62931 0)
(-3.18238 1.55563 0)
(-3.80256 1.47594 2.72805e-19)
(-4.427 1.41626 -9.62838e-22)
(-5.06625 1.37666 -9.13991e-22)
(-5.72605 1.34697 0)
(-6.40743 1.31453 5.49993e-19)
(-7.10446 1.2675 0)
(-7.8013 1.19617 0)
(-8.47312 1.09383 0)
(-9.09023 0.95739 -2.80822e-19)
(-9.62268 0.787686 0)
(-10.0438 0.589202 5.63719e-19)
(-10.3318 0.368438 2.78047e-19)
(-10.4696 0.130655 0)
(-10.4437 -0.120707 2.68279e-19)
(-10.2414 -0.382495 0)
(-9.85208 -0.651572 0)
(-9.26895 -0.921013 7.22984e-19)
(-8.49449 -1.17699 -4.58367e-19)
(-7.54453 -1.40088 0)
(-6.4498 -1.57364 -4.0641e-19)
(-5.2527 -1.68183 1.89985e-19)
(-4.00065 -1.72161 0)
(-2.73879 -1.6987 0)
(-1.50504 -1.62525 0)
(-0.328262 -1.51558 4.67878e-19)
(0.770094 -1.3838 0)
(1.77319 -1.24147 1.46421e-19)
(2.66859 -1.09576 0)
(3.45094 -0.951016 0)
(4.12006 -0.810516 0)
(4.69105 -0.669873 0)
(5.18053 -0.517667 0)
(5.58832 -0.356754 0)
(5.90704 -0.188553 2.60425e-19)
(6.156 -0.00150637 0)
(6.35129 0.181822 1.25157e-19)
(6.43435 0.297662 -3.68014e-19)
(6.33698 0.338648 0)
(6.06083 0.337054 0)
(5.63037 0.32837 2.28541e-19)
(5.12536 0.362041 2.228e-19)
(4.75075 0.394095 -2.17761e-19)
(4.40265 0.320497 -2.12706e-19)
(0.00654606 -0.0908604 -4.31863e-19)
(0.00701988 -0.0152036 -4.28826e-19)
(-0.00112231 0.10768 -2.838e-19)
(-0.00620503 0.219501 -1.40908e-19)
(-0.00133164 0.291174 0)
(0.0155583 0.315493 2.77498e-19)
(0.0346379 0.297774 -1.37801e-19)
(0.052604 0.247444 0)
(0.0608286 0.187734 -1.35603e-19)
(0.0674736 0.119701 0)
(0.0798091 0.0452456 2.67308e-19)
(0.0967371 -0.0313716 0)
(0.120099 -0.111522 1.31504e-19)
(0.149871 -0.195568 2.60902e-19)
(0.185684 -0.28022 -2.58789e-19)
(0.229676 -0.359822 0)
(0.283955 -0.426861 -2.54545e-19)
(0.349179 -0.474788 0)
(0.424085 -0.500248 0)
(0.505405 -0.506127 -2.48194e-19)
(0.588607 -0.499138 0)
(0.669941 -0.486146 -1.84975e-22)
(0.747752 -0.473178 0)
(0.821628 -0.465668 0)
(0.890878 -0.467406 1.89247e-22)
(0.954412 -0.479249 -2.35796e-19)
(1.01064 -0.49801 -2.3394e-19)
(1.05937 -0.517005 -2.31712e-19)
(1.10115 -0.528959 0)
(1.13744 -0.527259 -4.55489e-19)
(1.1732 -0.504411 0)
(1.21394 -0.453013 -2.238e-19)
(1.26382 -0.376812 0)
(1.3252 -0.290329 0)
(1.39781 -0.207882 2.17834e-19)
(1.47973 -0.157843 0)
(1.55868 -0.165034 -2.13898e-19)
(1.61444 -0.23681 1.15443e-22)
(1.65285 -0.353051 4.19829e-19)
(1.69826 -0.453827 -4.16045e-19)
(1.74598 -0.498408 0)
(1.77369 -0.474497 0)
(1.77022 -0.294193 -2.02519e-19)
(1.75155 0.0777305 0)
(1.73207 0.484436 -1.98119e-19)
(1.68862 0.805419 1.96089e-19)
(1.64864 0.934355 1.9407e-19)
(1.77455 0.58861 0)
(1.69386 0.26501 -1.90129e-19)
(0.535498 1.13633 -1.88199e-19)
(-1.06324 2.49234 3.72559e-19)
(-2.21605 3.25969 -1.83551e-19)
(-2.89163 3.39905 -1.8176e-19)
(-3.35805 3.30697 0)
(-3.73111 3.16039 0)
(-4.0461 2.97402 1.77796e-19)
(-4.36943 2.80484 0)
(-4.68801 2.65901 0)
(-5.04187 2.54984 -3.49488e-19)
(-5.41924 2.47669 -3.47791e-19)
(-5.84109 2.43646 0)
(-6.30352 2.42068 0)
(-6.81479 2.41586 0)
(-7.37146 2.4068 0)
(-7.96752 2.37726 -3.41503e-19)
(-8.57836 2.30592 3.43217e-19)
(-9.16629 2.16862 3.3962e-19)
(-9.68836 1.95014 6.80212e-19)
(-10.1102 1.65318 0)
(-10.4119 1.29549 3.14e-21)
(-10.5879 0.902387 0)
(-10.6433 0.500787 -3.31243e-19)
(-10.5902 0.115527 2.54813e-21)
(-10.4448 -0.234446 -3.24537e-19)
(-10.2274 -0.537954 3.20384e-19)
(-9.95745 -0.792201 1.71166e-21)
(-9.65049 -1.00027 0)
(-9.31801 -1.16928 3.07797e-19)
(-8.9668 -1.30793 3.01446e-19)
(-8.60042 -1.42431 5.93985e-19)
(-8.21979 -1.52539 0)
(-7.82406 -1.6163 -2.87217e-19)
(-7.4115 -1.70003 0)
(-6.98036 -1.77732 5.5227e-19)
(-6.52979 -1.84695 -2.70356e-19)
(-6.0603 -1.90636 2.65187e-19)
(-5.57405 -1.95231 -2.60109e-19)
(-5.07479 -1.98155 -5.11996e-19)
(-4.56735 -1.99162 2.50382e-19)